33
 energy: -58.562156634632 gnorm: 0.000212100236 xtb: 6.5.1 (579679a)
Au           0.15452779301646        2.27888973486605        3.21419102683018
Cl          -1.28768827839358        3.99433812931130        3.14720747800565
P            1.62938447446215        0.52918056183255        3.27998090086055
C            1.14796864767589       -0.91043387230582        2.27791988927958
C            2.06884555064158       -1.78861110199948        1.69930123843018
H            3.13576400682531       -1.63629281923219        1.83328943991915
C            0.41655335014970       -3.05918398075303        0.76168298546726
H            0.16812982892537       -3.92283666325772        0.15259419467489
C           -0.57704972086317       -2.24526208361175        1.28649023318227
H           -1.62153575404569       -2.45850849253023        1.09435464596659
C           -0.20776694581649       -1.15287419679660        2.05294751810997
H           -0.95678125923444       -0.48962156817719        2.47193842147603
C            1.93433817607838       -0.15838540880088        4.93635061175883
C            2.03537688365917       -1.52379160182419        5.21212225444100
H            1.94062104613519       -2.25716527360849        4.41704371978047
C            2.36591157754204       -1.14976259974429        7.44305013895859
H            2.53764919301087       -1.58453258055801        8.42288153959933
C            2.27420835701424        0.22528320616356        7.27760466253374
H            2.37079451364226        0.88961626747264        8.12772503802744
C            2.04955784572377        0.72953782236533        6.00847306911782
H            1.96206108841772        1.79819887072240        5.84358960965578
C            3.29623781102407        0.92274380966322        2.66518926462709
C            4.47539855815983        0.47252953889587        3.26310951800773
H            4.44128349308216       -0.15249565597074        4.15032220820672
C            5.78145328765700        1.53932320663428        1.71984647340836
H            6.78716941989082        1.76069629160685        1.37616793099752
C            4.67210986809224        2.04250207582732        1.05441092190775
H            4.79278423820281        2.66839392054466        0.17858021125755
C            3.41120758134517        1.73520626019671        1.53527691935152
H            2.52202510008515        2.11855207239654        1.04613695141333
N            1.71082056176366       -2.83140360289294        0.96420971768311
N            2.24528515746136       -2.00224971085529        6.43060376776211
N            5.68125454871480        0.77401944413948        2.80180749951527
