28
 energy: -51.195248107487 gnorm: 0.000315661673 xtb: 6.5.1 (579679a)
Au           6.05404489462774       11.92968475595182        4.18495537992151
Cl           8.45886405842687       11.84690294980416        4.04601325915002
Cl           6.06527100896915        9.63542994791563        4.08966063329309
Cl           3.93500932609546       15.95574970687122        3.96186637407342
C            4.05344795649171       12.00015713034438        4.19996312159817
C            3.18537866514079       10.92322112941614        4.23787197163837
H            3.56805864724683        9.91366718737727        4.31100863920114
C            1.81076246912514       11.12667673111664        4.18343275477230
H            1.14409638861662       10.27245990866405        4.22075268268386
C            1.28942774835285       12.41053028050365        4.07792163969003
H            0.21709192238601       12.56116043015623        4.02813517322744
C            2.14303108558203       13.49777431735122        4.03861022156574
H            1.74858052668029       14.50421153998066        3.95825557364606
C            3.52633992173299       13.29577865448392        4.10558053727100
C            4.50910854772260       14.34487477409516        4.13018321872911
C            5.82124960569273       13.98816234527283        4.26643984405031
C            6.85672269500168       14.93036589642092        4.47068026895594
C            6.72767915496696       16.39146930906514        4.82408638477230
H            5.98892254756642       16.55225355042336        5.60982251905942
H            6.39997877478619       16.94759176554732        3.94204626996754
C            9.05013550458577       15.68326754267189        4.75684928173891
H            9.61073691723544       15.95932932511936        3.85720202756133
H            9.75571717036125       15.33532017560154        5.51614650930068
C            8.14014425716578       16.81076698222109        5.25384670403973
H            8.42249161534740       17.77177454570260        4.82241205648890
H            8.19740275670420       16.89380557060137        6.34166132764184
N            8.12289490023627       14.61863723208672        4.43333824513537
H            8.44101093315368       13.63887631523342        4.25005738082662
