91
 energy: -122.188480929673 gnorm: 0.000123389496 xtb: 6.5.1 (579679a)
C            0.95411745419154        8.39802410636801        4.70596179855666
C            0.79100102913804        6.62841358685620        3.11468785351244
C            1.81992173927868        6.25068519618695        2.04840331044442
H            1.56928714261731        6.71873126539545        1.09773741381987
H            1.81483560714491        5.16911490170934        1.91248649089327
H            2.82042118973683        6.55327538995779        2.35036729114257
C           -0.58813146932382        6.17694879909220        2.62345346711043
H           -0.86818237767218        6.72790713172785        1.72644680302025
H           -1.34639060540858        6.32619571708098        3.38815281664141
H           -0.55248270725249        5.11507261419276        2.37999029824647
C            1.14662407591100        6.00598696826689        4.47205675934482
H            2.19159709397420        5.68227687783879        4.46835206526695
H            0.52942526964492        5.13028700265903        4.68210707048827
C            0.94795288061834        7.11727816250902        5.52099338997230
C            2.04260074153475        7.04584505335638        6.58968364303279
H            3.02838786529728        7.14921264425834        6.13489896761619
H            2.00124379748315        6.08445725915866        7.10399324160905
H            1.91090276738888        7.83845995725672        7.32443680363412
C           -0.41351165111659        6.97781654818495        6.22469082889221
H           -1.22775589779232        6.96691616856391        5.50173005071284
H           -0.56458989014062        7.81394862329760        6.90658396467169
H           -0.44437829914090        6.04878549054463        6.79511759380498
C            0.47884098647069        9.04130684599367        2.38899205746912
C            1.46759547920860        9.54397709366521        1.53026400832946
C            2.95255553620705        9.31802114633933        1.73579074984848
H            3.09946973482950        8.64419009593466        2.58857661317617
C            3.63437078061777        8.71879243017444        0.49903195292681
H            4.66883207112282        8.46759248749234        0.73436692357706
H            3.63592084863575        9.43325296302122       -0.32462337859723
H            3.12577832491130        7.81637978265185        0.16430336345433
C            3.62677103117293       10.65452494092682        2.07657383081015
H            4.67036340099205       10.48194699468178        2.34137138467382
H            3.12475899653829       11.12519957750053        2.92082492166544
H            3.59250938600608       11.33995933379369        1.22951530967278
C            1.08523333766482       10.38631702919983        0.48645853337694
H            1.83627918187300       10.76933727996980       -0.19514588392482
C           -0.23566280926204       10.75735025189926        0.31283833739233
H           -0.51667550709387       11.40547310853653       -0.50941585954439
C           -1.18752975881734       10.33309940641242        1.22337602546890
H           -2.21063749564145       10.67527515015067        1.11756204530580
C           -0.85162600115703        9.48090807719465        2.27276216510211
C           -1.92922474845740        9.14016838616688        3.28220592914545
H           -1.53314838856229        8.41064829852086        3.99464319965557
C           -3.17566696874938        8.54103368804946        2.61640495580758
H           -3.85367271589592        8.16396761841439        3.38256566569989
H           -2.90696525128339        7.71821709967159        1.95459532364023
H           -3.70616491455784        9.29185805791061        2.03003393888710
C           -2.31903066021076       10.39576289369366        4.07468106703744
H           -3.05626322900613       10.13627383089184        4.83468271670911
H           -2.74609594461827       11.15374947469196        3.41733138667913
H           -1.44385423281297       10.81600743907438        4.56733073209205
C            0.74142564822403        9.96718410514161        6.75155543356812
C            6.00744523747745        8.02109458460598        6.61301164812902
C            6.91857873095190        6.96227286700817        6.57724356448716
H            7.47010710747260        6.75355402356658        5.66724567158593
C            7.11337665745683        6.16665669486008        7.69603287322876
H            7.82107588154727        5.34610841403305        7.65473048365149
C            6.40465253898083        6.41624868989434        8.86374516900048
H            6.55692340818850        5.78948355689870        9.73507995146319
C            5.49708734856047        7.46567749122500        8.91103109194472
H            4.93709302122715        7.66161864497012        9.81819438343241
C            5.29951984406202        8.26015591144275        7.79298074147144
H            4.58334914972893        9.07364976330062        7.82777014028314
C            6.06315964853537        8.03777207620353        3.76869560436990
C            5.38983587254725        6.81629077621016        3.65757865195333
H            4.71327644769380        6.50535764500477        4.44658007938786
C            5.58528926176721        5.99850248470585        2.55698518249501
H            5.06671105495852        5.04861072981490        2.49163806088473
C            6.44294667707162        6.39604873091390        1.53838309013095
H            6.59342906206960        5.75879018995817        0.67459989250840
C            7.10358844737931        7.61370591687598        1.62975601565022
H            7.77198886924738        7.92993088949897        0.83678367506085
C            6.91523768521662        8.43041233872897        2.73573200194108
H            7.43888914482511        9.37777639673205        2.79723040549367
C            7.02867221397837       10.31816178038447        5.21511380218396
C            8.22719293149797       10.11183946007520        5.90072776386456
H            8.38754367121820        9.18849241913947        6.44600888230343
C            9.21733249958315       11.08221268703970        5.89086096182735
H           10.14347167529765       10.90961244695661        6.42774335963137
C            9.02590731880103       12.27012146948479        5.19804836135562
H            9.80227505738383       13.02669809194532        5.19237757844257
C            7.83518086939194       12.48946563947628        4.51872159214293
H            7.67765446852683       13.41779742833084        3.98134985647710
C            6.84133161110689       11.52345598144755        4.53322009897594
H            5.90649066537286       11.70384747660699        4.01350230048300
H            0.75363268626058       10.70566395475362        4.55995290899094
B            1.11081499180701        9.80910689858563        5.26819212945316
N            0.81096547405378        8.07966802222340        3.40477416900319
N            0.47360146317939       10.07883589130669        7.87038662013834
P            5.66256273704750        9.10361992942275        5.19004645883566
Au           3.33732669390125        9.65706725388627        5.19275940587745
