8
 energy: -17.202688834130 gnorm: 0.000376828936 xtb: 6.5.1 (579679a)
Au          -0.25613329397188       -4.81061763551058       -5.32233037434476
Cl           0.71690347841886       -4.72306040306704       -7.29092439653409
N           -1.61108867768909       -4.93039357966454       -2.57270133682900
C           -1.09804302986474       -4.88568407744333       -3.61678059668792
C           -2.23340602062543       -4.98506924283623       -1.30504134754028
H           -2.38595002451093       -3.96971028460460       -0.93387817650367
H           -1.59423350781985       -5.53671060144042       -0.61284320259415
H           -3.19664892393693       -5.49065417543323       -1.39740056896612
