56
 energy: -76.825736625751 gnorm: 0.000677511263 xtb: 6.5.1 (579679a)
Au          13.72679399637346        2.63705609599432        6.44145075582872
Cl          14.63592888579130        1.48523500651921        4.71803679355223
P           12.79822441603251        3.81033858588495        8.17854158754322
C           13.92582660074587        4.50394630249521        9.38879257799909
C           13.72732701495286        5.48386604618593       10.35386681979153
H           12.79482928275698        5.98226830221577       10.56313690994468
C           14.95442050808189        5.72034231532441       10.99198526081494
H           15.13649567749280        6.41966811877212       11.79159246466983
C           15.88639646345630        4.89649023431815       10.40532542160763
H           16.93875502261940        4.77098386737911       10.60215382254131
N           15.26304297037554        4.16494078746276        9.44426381882464
C           15.94986391918925        3.24313932996226        8.60415775942702
C           16.73492136463183        3.73528197870753        7.56682477346201
H           16.79788162866858        4.80434938699849        7.40357739166769
C           17.41968731332038        2.84492718063950        6.75253873106745
H           18.02462770110249        3.22039388517528        5.93562922538919
C           17.32261340900494        1.47856541389735        6.97691201543921
H           17.84857451113722        0.78629892896356        6.33057327248812
C           16.54837565579077        0.99640236824890        8.02317027023649
H           16.47741675012424       -0.07029272741932        8.20091594553473
C           15.85966481889046        1.87713278271432        8.84573353631157
H           15.26241338980063        1.51403295160669        9.67289689094805
C           11.56453932096882        2.81880846003300        9.16011952583487
H           10.78175065676176        2.51325227940421        8.45293108361540
C           12.24619546407292        1.54529605926104        9.68189510572772
H           13.04417278060495        1.81744863077861       10.38121857224754
H           12.70146790302259        1.00358111991693        8.84722769811616
C           11.23330220000831        0.64157340340225       10.38846639076786
H           10.47758289388374        0.30902880430367        9.66905404964943
H           11.74525300814563       -0.24493878579885       10.77362784897436
C           10.55459484980271        1.38922058273609       11.53768721899334
H           11.29995755486855        1.64987707245755       12.29682780555168
H            9.80791140474521        0.74281981672795       12.00782242131262
C            9.88202827302517        2.66290045074377       11.02251578241759
H            9.08365236728929        2.39948752589575       10.32047139845394
H            9.43025299602333        3.20722223765721       11.85692700348714
C           10.89986705545565        3.56786346648016       10.32202438240509
H           11.66214029122438        3.88240778775731       11.04186424735866
H           10.39231496138583        4.46356019633592        9.95359122358373
C           11.86654100007125        5.30545887651546        7.59018884807756
H           11.41924959978424        5.84456590792130        8.43498658595877
C           10.75010191891665        4.89020555394924        6.62272428521011
H           10.02606545104826        4.25183890627346        7.13700391176596
H           11.18073102884609        4.30992956659322        5.79911879907076
C           10.02971843619729        6.11977613809067        6.06397699635257
H            9.25856316279068        5.79624264754663        5.35897018697561
H            9.53518707868522        6.65442421464933        6.88227172573616
C           11.01575187986014        7.05483804290036        5.36197977646692
H           10.48775269378435        7.94161902274610        4.99981842152011
H           11.45229730888089        6.54550025235302        4.49640264095843
C           12.12774331266334        7.47438179576638        6.32490237622919
H           11.69993239862439        8.05067383773393        7.15237076132831
H           12.84714351233940        8.11404233107667        5.80561970796913
C           12.85210317825575        6.24685575252702        6.88107842168920
H           13.34448841052873        5.70846579996934        6.06339377880792
H           13.62756434709378        6.56640510325638        7.58344497229397
