60
 energy: -98.996946370138 gnorm: 0.000232736636 xtb: 6.5.1 (579679a)
Au           1.45739674297538        3.51662896147120        3.33447025534087
P            2.81185057791846        2.16817998733520        2.05702909722368
O           -6.38592028343951       11.78083278668188       11.01138649853205
O           -7.99486672664661       10.52681107103248       10.37945571529659
N           -6.83081683900618       10.84381336423034       10.39515163743928
C            0.26054337564374        4.65932280511084        4.42446514958665
C           -0.49968248610958        5.34262997357536        5.07858316494388
C           -1.39637473508097        6.13732250105992        5.83867390870510
C           -1.00851385419862        6.68309116021078        7.06925891811101
C           -1.88712102666117        7.45425464077435        7.80546877604897
C           -3.18608500012195        7.69868506691197        7.34510145616403
C           -3.57336341696598        7.15085471504960        6.11663638900234
C           -2.69398773276028        6.38818390576366        5.37322045665069
C           -4.12386374502106        8.50959111736931        8.13270109046046
C           -3.67320602302197        9.61376613874961        8.86833598943617
C           -4.55244738180782       10.38021109693191        9.60822953893697
C           -5.90486171431070       10.04525428689585        9.62202186193181
C           -6.37708867759808        8.95080185525234        8.90054040830776
C           -5.48872398435268        8.19323737674743        8.16271205316228
C            2.97222497639693        0.46292481264707        2.67314132958292
C            1.97792144705805       -0.02084160956379        3.52501843291588
C            2.04123896505029       -1.31197056549528        4.02556129061487
C            3.10495036598274       -2.13604273119682        3.68479427709656
C            4.10423608146056       -1.66407662111350        2.84363731002645
C            4.04050190186146       -0.37400337344234        2.34070825829990
C            4.54338718508690        2.70952142455159        1.89642654487476
C            5.12753408385682        3.34423955380903        2.99458217724487
C            6.44736801699150        3.76407908460851        2.94877416833737
C            7.20046421413849        3.56152574396958        1.79986844265890
C            6.62796172598864        2.93981910053709        0.69866845584741
C            5.30852685723296        2.51534494539030        0.74463491918225
C            2.28367297913211        1.96727541834691        0.32600554384182
C            2.04167598809769        3.13439583498663       -0.40505582844382
C            1.60792958440694        3.06849540053042       -1.71877351756228
C            1.39665845038561        1.83363772823424       -2.31897136871661
C            1.62068076295555        0.66882460863510       -1.59892646506264
C            2.06043168870016        0.73304987536195       -0.28464066492367
H           -0.00946472261379        6.49348282613667        7.44533246831366
H           -1.57318541481104        7.85026097493129        8.76535210520638
H           -4.56681755244635        7.34881673501368        5.72859426249935
H           -3.00635296786320        5.97851953613920        4.41924214984061
H           -2.62425633824386        9.88560848440794        8.84287756601670
H           -4.20757697984114       11.23823227846931       10.17279611742191
H           -7.43180987676642        8.70469815088065        8.92960815606007
H           -5.85322504612431        7.33085433782465        7.61659557404766
H            1.15129799982225        0.62684053233383        3.79644992281092
H            1.26152399992217       -1.67425110702530        4.68594237109705
H            3.15825786788432       -3.14503715031855        4.07762145475140
H            4.93853772261214       -2.30401791016250        2.57881773131707
H            4.82825622703049       -0.01158009604861        1.68927547142023
H            4.53654188155142        3.50991894927376        3.88916168717460
H            6.88875963631252        4.25405308880196        3.80922729766090
H            8.23229052770041        3.89173961711185        1.76136186443589
H            7.21141753427257        2.78382704079538       -0.20185673661898
H            4.86795124888503        2.03642050780521       -0.12256917036777
H            2.19761033168684        4.09969816035446        0.06541185636394
H            1.42920084286273        3.98172090168560       -2.27510372877745
H            1.05354547608457        1.78050240990591       -3.34592076334819
H            1.45225274110706       -0.29718585786357       -2.06172313350546
H            2.23131251675704       -0.18369385240208        0.26820980512460
