27
 energy: -65.503816231431 gnorm: 0.000308671007 xtb: 6.5.1 (579679a)
Cl          -1.33744047931749        0.36818704908981       14.47784398823874
Au          -2.21300897024681        2.19551648498711       13.56661270471633
O           -5.57580972078183        3.80437947555877       10.12939661078053
O           -5.22703276482833        4.36465701332736        8.09826541182432
O           -2.29656039940374        1.05986675086686        6.00073819583544
O           -0.50796339690643        0.48982092414770        7.01822278328705
N           -3.10289453333687        4.10987318119434       11.42058262097483
N           -3.67161417260276        5.32448965987238       11.19607461728087
N           -3.48060056349929        4.91777858115134       13.32914830826572
N           -4.89994779802427        3.87854533535567        9.14324133757600
N           -1.56088240179961        1.06126332689537        6.94842149407057
C           -2.96941747487610        3.83145390080460       12.72663730192728
C           -3.89577056325984        5.80027122259737       12.37849060692473
H           -4.33811892093047        6.75852867724460       12.58655188719627
C           -2.75721176538303        3.31008646599323       10.33094701851336
C           -3.56870499186095        3.25741779050275        9.18964823102998
C           -3.17647563597230        2.53509426457329        8.07314408724961
H           -3.80387197559709        2.51163114825876        7.18892739927038
C           -1.98101419715151        1.82928416491843        8.11891667669183
C           -1.17883547897642        1.83840041164741        9.25735785836701
H           -0.25469502646836        1.27269859032803        9.26644832552663
C           -1.56206593064908        2.58968263878362       10.35281590426289
H           -0.93577610002362        2.63719124255465       11.23281138141084
C           -3.59055971392616        5.09974928467622       14.76157380026746
H           -3.17515735887568        4.21795036698879       15.24510549732941
H           -4.63950445846278        5.21424296168516       15.03795247356709
H           -3.03266520712187        5.98653908674920       15.06512347718902
