71
 energy: -108.951572837321 gnorm: 0.000226395357 xtb: 6.5.1 (579679a)
Au           7.53708083478982       10.93786058425572        2.87798812551438
P            6.78148527099351        8.79177391552078        2.48101973991920
N            8.20299817823587       12.85444196158221        3.16998893927741
N            8.51065121230310       13.49240291144017        2.04065912523220
N            9.10636887344083       14.57642548910183        2.31342380136447
N            9.18814682539618       14.67220173817444        3.64532753678076
N           11.94439327946518       19.06241528873537        5.82480682827534
O           11.58892862896936       19.45515380369954        6.89999552367620
O           12.84556600498324       19.51006418264333        5.17446990215307
C            8.10642783412814        7.57511248869541        2.16385506949519
C            7.77757865014973        6.25902324687382        1.80531538477496
H            6.74025576435778        5.97825395713667        1.68122058437031
C            8.75033727634532        5.29787870603321        1.59408753780882
H            8.45894823623667        4.29175854465265        1.31745948094100
C           10.08994389880150        5.62808163765397        1.73888217196007
H           10.85992459981976        4.88241157332088        1.58160793779553
C           10.43769860522954        6.92440049272795        2.07710416856339
H           11.48189215505043        7.19732968323221        2.17903230469507
C            9.46629948525169        7.90447220146581        2.28546525738402
C            9.98440495012681        9.26231180314655        2.59942989415022
C           10.35201379567760        9.59996256625088        3.90339857010088
H           10.17937557000950        8.89418598745440        4.70768264781266
C           10.96232046129895       10.81968805362651        4.16486981934804
H           11.25228130018679       11.06729499051943        5.17983549900392
C           11.22080734100623       11.70800542054783        3.13020634839994
H           11.70914110517913       12.65383809091611        3.33538092127288
C           10.85785473744410       11.38132564809298        1.83084420925610
H           11.05929421853005       12.07156561657143        1.02019310796707
C           10.24361743033508       10.16516913021495        1.56283970309347
H            9.99000805855550        9.89481407886318        0.54441273865692
C            5.94475791427432        8.19136994208698        4.05644869272692
C            5.53780547990804        6.71353559184625        4.08169218773916
H            6.41011676519705        6.06825653025993        3.98849299177160
H            4.83286523990176        6.47391243225843        3.28901704503580
H            5.05831699963976        6.49724221326390        5.03756447247928
C            4.71484925995708        9.06404020109482        4.33973355993708
H            3.92056929351385        8.86877177173873        3.62101148069075
H            4.97182374419520       10.12354292577755        4.29957096116281
H            4.33206175791856        8.84284298697657        5.33687846610872
C            6.97554342831955        8.41466502102932        5.17721917963470
H            6.55401773509199        8.09942415310927        6.13212755491104
H            7.24578799964091        9.46927289947566        5.25455501665643
H            7.88145249349479        7.83695414578058        4.99363030867991
C            5.66844738962273        8.79848258395092        0.95753140082774
C            4.91500937967932       10.13874411762489        0.92880315610914
H            5.61370954119835       10.97549923094046        0.89306357288483
H            4.27658131467591       10.25639993276326        1.80278023639529
H            4.28697000489715       10.18377532221474        0.03837668269039
C            4.63187287876453        7.67332987669113        0.85671811290037
H            4.08121614089511        7.78695192699664       -0.07848721736069
H            3.91701239130284        7.72403695163353        1.67617776389300
H            5.09717130993563        6.69024767754750        0.85205395768428
C            6.59828073433633        8.74656294421124       -0.26640297990310
H            6.01842462106561        8.92619150791740       -1.17208072085122
H            7.07859805578061        7.77289390682516       -0.35236943092452
H            7.37287359328425        9.51215969075555       -0.19767191311191
C            8.62432206289814       13.58284098469811        4.17806055473312
C            8.51625208595226       13.20900533908252        5.60522710512663
H            9.42015992350870       13.48603642420684        6.14649334631888
H            8.36662914519627       12.13279294403289        5.68003380555643
H            7.66560271925348       13.70768056090464        6.07237754251499
C            9.85929001954294       15.77863104229543        4.21140777185400
C            9.47217866624284       16.29157284232406        5.44692539480214
H            8.63096004542992       15.87159145676561        5.98215377518155
C           10.15872887934010       17.37311745606359        5.97401597970342
H            9.87992245255096       17.79522343214757        6.93236212450533
C           11.21344889535554       17.92495288634225        5.25687705551932
C           11.59061770365362       17.42674780917735        4.01440706714880
H           12.41202676998493       17.88549058031602        3.47675039674862
C           10.90786941116007       16.34532652489920        3.48739761193789
H           11.17631117529258       15.93215944321200        2.52307305478956
