37
 energy: -56.719275872206 gnorm: 0.000078982579 xtb: 6.5.1 (579679a)
Au           0.00000482212338        0.00002332044869        0.00007680588576
S           -1.58233314765375        1.69907944389625       -0.29307919084703
S            0.80093971487410        1.30748269592427       -1.76802613403521
C           -0.59310325390467        2.25567419034837       -1.55747893951054
N           -0.88745762146783        3.28668620009648       -2.30644478349000
C            1.16838075302161        4.55412734225353       -2.81306782552163
H            0.78861191268267        5.47255522758730       -2.36849364317226
H            1.84982279379310        4.81102386115499       -3.62283795124056
H            1.71519257248324        3.99317465519114       -2.05591750041776
C           -2.10602765730891        4.06083186450898       -2.04810874784004
H           -2.89561162413958        3.34793741164525       -1.78759906925761
H           -2.38298239319565        4.57817463962144       -2.96947613528170
C            0.02822222424200        3.70949126870983       -3.37109438390216
H           -0.54632033280454        4.26924686125760       -4.11263208740828
H            0.42574641473720        2.80205091219039       -3.83802456668898
C           -1.89727722501286        5.05128626753889       -0.90784996273680
H           -1.59612702574170        4.52408206620768       -0.00322205554017
H           -2.83268174917157        5.57509547375355       -0.71621039784272
H           -1.13144174250430        5.78151966240402       -1.16408787196246
S            1.58242434180640       -1.69902325795389        0.29323243028755
S           -0.80082092629191       -1.30741509197794        1.76821339807354
C            0.59319931516471       -2.25563310630498        1.55763036330443
N            0.88747214775530       -3.28675226172155        2.30647987892681
C           -1.16846711861074       -4.55408793619261        2.81305281031779
H           -0.78877524941820       -5.47250500816195        2.36839236716798
H           -1.84990864729038       -4.81099854296181        3.62281985376080
H           -1.71525618469642       -3.99303387499378        2.05596269297728
C            2.10601845746851       -4.06092303215714        2.04810881676699
H            2.89565007762013       -3.34802911458502        1.78774539932703
H            2.38289170625858       -4.57839804266578        2.96942379076670
C           -0.02822879996607       -3.70957533760222        3.37110588933778
H            0.54628343135703       -4.26942539254746        4.11259727392436
H           -0.42567513265111       -2.80213386524124        3.83810427201385
C            1.89729862097643       -5.05122170246342        0.90770951023096
H            1.59624067285144       -4.52388464653847        0.00312802977995
H            2.83268810453261       -5.57505473790664        0.71606694720434
H            1.13140774807904       -5.78144841275643        1.16380071664424
