53
 energy: -76.757151788295 gnorm: 0.000161917799 xtb: 6.5.1 (579679a)
C            5.77436165314116        4.39234086372398       16.08090486946542
H            5.95583082517441        3.46191445248347       16.60841377763461
H            6.17634787661611        5.21636395344433       16.66058524778522
C            4.37398279854742        4.57540648215947       15.82266621641745
C            2.40394433030514        5.51522743970059       15.36538370086131
H            1.70599337378652        6.32017127259043       15.21755094307503
C            2.24205454665831        4.17512831659683       15.30423747966756
H            1.37456566554142        3.57552633427176       15.09245181127394
C            3.75395012339342        2.18761652955757       15.60264250383863
H            4.54571266954213        1.96976904266663       14.88269661378451
H            2.85186469547202        1.64169164697835       15.33349314910113
H            4.08077923649744        1.88932310128588       16.60024572032126
C            4.33814439642606        7.05310076766637       15.83080184171631
H            4.71717955529298        7.16892382875456       16.84762249433886
H            3.59124373611047        7.81828148361528       15.62855792695226
H            5.16454734656183        7.14857025045991       15.12349604833682
C            9.65800477112422        3.56160093222557       12.28457465682807
C           10.75948883138265        4.22991463609700       11.74668601791850
H           10.62119004478540        5.16897239240724       11.22340696916515
C           12.03274764967479        3.69580343028382       11.87726174580641
H           12.88009134925511        4.22307840843897       11.45451808371833
C           12.22211090789628        2.49409895700112       12.54469106335062
H           13.21845075211862        2.07998355770915       12.64509329864926
C           11.13337289511226        1.82421064725302       13.08840681827185
H           11.27701958222447        0.88706985141809       13.61362283472373
C            9.86055803803774        2.35587541136410       12.96485728502793
H            9.01116237993886        1.83442241108497       13.39484324197258
C            8.10206949442401        5.79953498194282       11.33578817676062
C            8.14579762374387        6.95920104151603       12.11407700742670
H            8.08156126006360        6.87960467931599       13.19488938737864
C            8.27107231344598        8.20385655106347       11.51794889310551
H            8.30663057129001        9.09522548909810       12.13359689367876
C            8.34681558195023        8.30647517628335       10.13541551861008
H            8.44127496211553        9.27978214064325        9.66846774201993
C            8.29750778164073        7.16135718593297        9.35185610106254
H            8.35391602874845        7.23839742589028        8.27224833812007
C            8.17641292473155        5.91446917677182        9.94488338091524
H            8.13684210098160        5.02489698630504        9.32633261919709
C            7.14493635064063        3.11435621207068       10.96646984062999
C            5.74869972853868        3.05500463171404       10.96787935826477
H            5.19056022518446        3.63611175512615       11.69608129213136
C            5.07563541668036        2.26414699370285       10.05087185848501
H            3.99223679368460        2.22914501353747       10.06132224884344
C            5.78956003450047        1.51591647864090        9.12392279785996
H            5.26364507311712        0.89452071254933        8.40868708015109
C            7.17681064872448        1.56135794137744        9.11824925975296
H            7.73706947344400        0.97571913826188        8.39868793108582
C            7.85339453191573        2.35497582858743       10.03197459763346
H            8.93703157709475        2.38183803095870       10.02451194648393
N            3.72498936712452        5.74708114429636       15.68220211688126
N            3.46663311443524        3.60886312912738       15.58515035003698
P            7.95956361797387        4.19650291875555       12.17748100420670
Au           6.81733337319155        4.30677283527802       14.20959189926784
