93
 energy: -172.284685139188 gnorm: 0.000267766137 xtb: 6.5.1 (579679a)
C            2.81972282149427        3.21040792036582       12.74227344047191
C            3.02484377106213        1.39009310694092       14.02738574943001
H            3.13303103814141        0.84273958357308       14.94719156593884
C            2.95077252583607        0.97379221171302       12.73864741299192
H            2.97533777261919       -0.00937771343957       12.30279789827122
C            2.95874679360416        3.61115197247401       15.14952442305784
C            4.14661903010129        4.26236836267459       15.48516891607162
C            4.14244685183552        5.08189575120683       16.61161216666788
H            5.04722816171712        5.60264583346269       16.90257636570932
C            2.98922229317003        5.24395231620008       17.36237746341492
H            3.00119748139949        5.88660389510348       18.23522046934600
C            1.81810405332739        4.59622567835606       17.00146054141530
H            0.92455741421902        4.73968945200319       17.59735962508576
C            1.77976895959713        3.77037569857733       15.88097024673499
C            5.40667973513054        4.08987338785808       14.66395237100030
H            5.18193168561300        3.45571867615987       13.79720235571720
C            6.49040833533560        3.38677354999008       15.49114533957306
H            7.37795210881254        3.22521405225148       14.87902590648249
H            6.76958413046837        3.98774216445326       16.35680806329446
H            6.12588831620031        2.42037368106011       15.84121139963939
C            5.90497320134279        5.44162309670084       14.14023690347844
H            5.10717868974693        5.94846802622795       13.59863044540285
H            6.22885984915953        6.08631340859330       14.95697481639958
H            6.74532812975571        5.28829166648316       13.46273670632509
C            0.50484493064544        3.05517193490864       15.48503931599914
H            0.63955261167196        2.62238310546654       14.48556049400546
C           -0.68862738253408        4.01390094497211       15.42065022138357
H           -0.45868084625034        4.85325526550974       14.76687978491299
H           -1.55726434902646        3.48906353660363       15.02230263411435
H           -0.94191643103014        4.39911521499380       16.40826228192569
C            0.22937579587973        1.90691309680253       16.46590836281767
H           -0.66843873153051        1.36673345404896       16.16495666891282
H            1.06911039266644        1.21088082192632       16.47638206621338
H            0.08443129980443        2.29090456417923       17.47606119206220
C            2.68687790060548        2.16859559130423       10.55602614556919
C            3.83501748678515        2.29706049967469        9.77325365310070
C            3.67263210171011        2.39531385734541        8.39336295198343
H            4.54139902773666        2.49836848035824        7.75354314310530
C            2.40663525443321        2.37787201818807        7.82928662703375
H            2.29596751732108        2.46171475249826        6.75416422446983
C            1.27999574434105        2.27123831516248        8.62999735674470
H            0.29759255030446        2.28150751792155        8.17247275885766
C            1.40038897848212        2.16454268666268       10.01342514497410
C            0.17463747058088        2.09815506963884       10.89995107090668
H            0.49361206398634        1.89224755748522       11.92931346288841
C           -0.76767525141520        0.96846245838803       10.46901310303844
H           -1.59082477471369        0.88652440829506       11.17897468923047
H           -1.18412184005392        1.15730393070823        9.47955527309327
H           -0.23013757928014        0.02003332728589       10.44618103128839
C           -0.54820327587297        3.45106201119273       10.89335218340944
H           -1.40939118116987        3.41728009287397       11.56044783382313
H            0.12659512947303        4.23451187158253       11.23982832596174
H           -0.88888888519014        3.70579643992663        9.88971053856195
C            5.21157192764369        2.36558571674311       10.39973951934703
H            5.11202875956836        2.24291905440110       11.48554828098349
C            5.84648703004749        3.73706382512389       10.13813230811166
H            5.19623015547475        4.52708665088905       10.51479140651937
H            6.80727619907104        3.80541337474042       10.64871914816453
H            6.00415301339027        3.89879785352252        9.07180681615434
C            6.10734232486304        1.23515489874607        9.87955499491395
H            5.63825606421540        0.26918123591155       10.06897426182792
H            6.28030351333555        1.33410183415415        8.80783254374587
H            7.07034472868283        1.26228817797274       10.38972650249040
C            2.70892818572169        7.01646895503616       11.13067961981111
H            2.64051956241317        6.95878526823076       10.04593734679166
C            4.01716470923211        7.58294449040786       11.53246155752669
C            6.30979428509694        7.65052963870444       10.97139912754840
H            7.00383127805042        6.98886734955166       10.44278728499922
H            6.52719686954143        7.62081498359650       12.04705213378992
C            6.40671371980590        9.07707962398635       10.44631630283360
H            7.42394046552790        9.44536783510207       10.57509122408879
H            6.14617931125738        9.10479652630069        9.38880289424489
H            5.72099784216320        9.72137140213451       10.99434959167511
C            2.01460263015889        7.86070545266668       14.54324457305732
C           -0.09289486930983        9.75548621137904       10.45648626495565
N            2.94147804653235        2.76168822880396       13.99937782231113
N            2.82636899486319        2.10991514546830       11.97650360412733
N            1.60455461266764        7.82478815611152       11.58790731478024
O            4.21267774187182        8.29705909663828       12.48510773674990
O            5.00251072534057        7.11509343964716       10.73617467530561
O            0.54838137837833        6.19858016082336       13.15842495534824
O           -0.18213941683128        8.55837816857565       13.18111153877002
O            2.51780890201442        9.55566567830323        9.99824925980769
O            1.81857860660909       10.39011799573822       12.23216049760671
Au           2.71532058914091        5.08869682274101       11.98284490906947
S            0.87417700318432        7.60025977925781       13.06707563699679
S            1.64487465804533        9.49148027314349       11.13234899109132
F            1.25792085394139        7.64774115764884       15.60588745471749
F            2.96176945301213        6.94159479016916       14.50692443175814
F            2.52838020470981        9.05566767530155       14.59911767729800
F           -0.69111994338109        8.59210522198247       10.28577786343442
F           -0.78942673957538       10.50691098265757       11.27309744208038
F            0.02203774533044       10.35767826270272        9.28992135249565
