75
 energy: -98.004594262320 gnorm: 0.000457000065 xtb: 6.5.1 (579679a)
Au           7.71764297902527        2.54554512145797        7.46169454976944
Cl           8.02454290004924        0.55346887947940        8.47720523941684
Si           6.42211494477236        3.03772253678966        2.24867743165929
Si          10.50443903539178        5.02961696200632        3.50995891415576
P            7.46085206289154        4.57171729282974        6.40667672074278
C            5.85522168078881        5.44681048800432        6.52107847551805
C            5.18493454757025        5.55477657350006        7.75148667404569
C            3.94102383335384        6.18192330249854        7.80544581118901
H            3.42842902937782        6.25357671981709        8.75904318247052
C            3.35149938093041        6.71130618272049        6.66967844193078
H            2.38228660497147        7.19263529428850        6.73280301468159
C            4.01545952684880        6.62568662594448        5.45474427194089
H            3.57471931194063        7.04373262343567        4.55695490840852
C            5.24870515740776        5.99916006579117        5.38673808364133
H            5.74564882054632        5.95027425205730        4.42600702781899
C            8.63535124916002        5.84083089963555        6.98292261341766
C            9.76269021153179        5.43952110880246        7.70236007912539
H            9.92910405333716        4.38355106918428        7.88342334019501
C           10.66325711033909        6.37512511493138        8.18987975600877
H           11.53198974968025        6.04731274424189        8.74911641445298
C           10.44576499315883        7.72805049229641        7.96757968615622
H           11.14355663158770        8.46166842852815        8.35470185069224
C            9.33042488463627        8.14032291508625        7.24904304960112
H            9.15789223940135        9.19612412396629        7.07277101943227
C            8.43094152681597        7.20533284896357        6.75980179516000
H            7.55952436887893        7.53595276655317        6.20524077198540
C            7.78816284284011        4.32393098966404        4.59930969962635
H            7.61991168609325        5.25001660906622        4.03878588222881
C            6.77524234461166        3.24203785096204        4.13686730242076
H            5.80708811125765        3.45707084241732        4.61784352538199
H            7.08991821166007        2.28973333482837        4.58820958701436
C            7.95111403428230        2.43910275103724        1.27028164993967
H            7.71071095254518        2.23576430872357        0.21995610362310
H            8.37100041272134        1.50833920216354        1.66778333621301
H            8.77506297385563        3.16003023478496        1.25305242709049
C            5.80565529836631        4.70743474736079        1.54510698285733
H            5.55892162319034        4.64658028033951        0.47898630877114
H            6.53860179922719        5.51598569580469        1.63657514286011
H            4.89750674388039        5.06485934915994        2.04358895774597
C            5.03771843032236        1.72873863748888        2.09902969206910
H            4.12307584993496        2.01145396262234        2.63235434862250
H            5.33054699848361        0.75193675617617        2.50040279016818
H            4.73754907921731        1.54862302315008        1.06032495029144
C            9.25524189295819        3.84538907855934        4.39564122526534
H            9.21013847281232        2.90898329143033        3.82048674606156
H            9.65604521165401        3.52052893086926        5.36827411495035
C           11.43254794872705        6.15788626645656        4.74355135635309
H           12.25488944273671        6.69855653665343        4.26003479024840
H           11.88224990549385        5.60977340036951        5.57852786203900
H           10.79494597102238        6.92640413141495        5.19210416856013
C           11.78371368586308        3.91844172660114        2.62339444657690
H           11.33774600666722        3.27415522732669        1.85753778173813
H           12.30853256518551        3.24654507337133        3.31229404614212
H           12.56414432370018        4.49625509898274        2.11497583077785
C            9.61304999877977        6.14992062137182        2.24003947596054
H           10.31939752017433        6.78469973047949        1.69209459343557
H            8.89393678726516        6.83544415331097        2.70228338194168
H            9.05736685539387        5.59473833176945        1.47733653999743
C            5.77845654377266        5.07452618101093        9.04632378058592
H            6.53367317067440        4.30507818087178        8.86709331786885
H            4.99817528934642        4.63651076036008        9.67554860884420
C            6.43529598757181        6.24329281309387        9.80928316392181
H            7.19643616159336        6.70400256575033        9.17318873654601
H            5.67411601767194        6.99763793615521       10.02876181750735
C            7.05481635498637        5.73359952695044       11.08428543784386
C            8.34327478747967        5.20546784241979       11.07667701122354
H            8.91543676148786        5.19655568566586       10.15504188966681
C            8.90149623252360        4.69685028269756       12.23997803934111
H            9.90629652367384        4.28933223216544       12.22221169544781
C            8.17495004377328        4.70778181971731       13.42276117337867
H            8.61032747274241        4.30986513436711       14.33237857771918
C            6.88861381755073        5.22928562355321       13.43677993516903
H            6.31629460878736        5.23935869220123       14.35793746045016
C            6.32952784707791        5.73694543126172       12.27264407213181
H            5.32306156415352        6.14230368423608       12.28893711210013
