99
 energy: -156.907485132369 gnorm: 0.000107876762 xtb: 6.5.1 (579679a)
C            8.30687295628620       11.58719242965051        5.12928836346301
C            5.11890238949448       14.28602062011658        4.78834109873710
C            8.09394196892330       14.46461993740058        4.15036603384797
C            9.54734151893932       15.54434344543071        2.82817531126950
H           10.16366170949426       15.69370659349618        1.95986837903684
C            9.30178148415914       16.33655744977671        3.89800637837505
H            9.69008433056486       17.30097202282233        4.17228315899924
C            8.79525597970884       13.32162229374877        2.06589269334189
C            9.91347648385137       12.48507452309400        1.97665079427292
C            9.87708087584854       11.44828311207563        1.04732997827833
H           10.72709459789398       10.78362991682850        0.95054072177790
C            8.76812788805830       11.25296957894309        0.24057138742320
H            8.75531527713690       10.43535138889941       -0.47104110497511
C            7.68482938866186       12.11109423388192        0.32528779822191
H            6.83482993828220       11.96502925450286       -0.33085678236012
C            7.68257359619499       13.16750440420630        1.23376048176604
C           11.15227058918924       12.70066922640533        2.82084960045559
H           10.89874883569360       13.36603872245675        3.65451181223961
C           11.69074004574188       11.38737587601025        3.40203105657060
H           12.42595711482603       11.60815377086977        4.17597303383632
H           10.88316841062464       10.80720647135718        3.84366058257354
H           12.17365015539199       10.78390671718164        2.63284906547160
C           12.23943710231028       13.37960000637393        1.97407857710332
H           13.12217657035005       13.56717337910879        2.58561287615058
H           12.52357092855960       12.74233660335516        1.13593265739563
H           11.88244797242620       14.33023046047802        1.57720827297229
C            6.53062480353156       14.14890017704569        1.24397229213819
H            6.65867161111276       14.83933790185267        2.08367295558656
C            5.18413909662731       13.43772886577352        1.41235789957502
H            4.39621608213712       14.17319453559413        1.57030532029352
H            4.93593794939716       12.84259690898268        0.53349320616170
H            5.21691300385184       12.77667310049674        2.27895145350672
C            6.55176256265497       14.98019971189775       -0.04605633287507
H            5.74927841956089       15.71741220529570       -0.02303186541179
H            7.50478633158573       15.50240621633536       -0.13830635046849
H            6.41705188890051       14.34401036146049       -0.92120523464753
C            7.90070811867165       16.18601858574402        5.92281853243297
C            8.38136750013392       15.65724734190213        7.12419347162994
C            7.88502176489386       16.18074626532652        8.31625687432339
H            8.23742013027098       15.78820368010641        9.26297039883971
C            6.95500695447958       17.20642061768379        8.30582753070261
H            6.57800921869787       17.60352783169730        9.24136592611811
C            6.51736333953758       17.73827037796313        7.10403311780112
H            5.80554410088528       18.55490030723477        7.11329025714983
C            6.97940056995044       17.23896553244810        5.88867566695902
C            6.50886962695471       17.85939847256667        4.58964148366096
H            6.76095766922043       17.18278752502685        3.76462682490845
C            7.23726506998096       19.19253215431827        4.36192172256991
H            6.92670127083447       19.62668968837742        3.41145177720370
H            7.00291259468579       19.89655448899204        5.16114549216076
H            8.31715856850341       19.04411613362103        4.34064977863356
C            4.99201621065081       18.08691664474197        4.57626641713399
H            4.66797172687391       18.30875415778572        3.55941300973554
H            4.47054981017968       17.19675231161202        4.92189062694483
H            4.71282883981497       18.92502585469786        5.21550587502612
C            9.45492264197610       14.59125456931523        7.16136821499003
H            9.65657211293650       14.25328780576582        6.13988232255809
C            9.00885051915803       13.37887685514761        7.98582316148073
H            9.72189613258448       12.56486267479113        7.86112396144667
H            8.93860012162719       13.62407010361957        9.04565995929018
H            8.03077913994699       13.03544718735559        7.64602634895037
C           10.75667477117580       15.18195954779666        7.71907729079294
H           11.54004711414508       14.42419109292039        7.70732178879659
H           11.07627721571519       16.02589041457810        7.10676189591195
H           10.62034053624311       15.52732092354224        8.74421664976279
C            5.45160952977245       11.54875170534165        5.69030699943271
H            5.93063173878272       10.97191949617545        6.47957675624040
H            4.57344737482242       12.02075383526617        6.12732739772667
C            5.00551099622974       10.60060945831224        4.58095721458937
H            5.86874007153788       10.08885320251117        4.14595355214322
H            4.50927003209691       11.16004921788685        3.78240706838785
C            4.02268618723541        9.54707041705596        5.12663807662885
H            4.51346748373072        8.97317474207377        5.91737908309242
H            3.15640014163498       10.05700824698404        5.55720040268213
C            3.59287407824343        8.64152696475563        4.00729583732658
C            2.54991068746481        9.01439765633854        3.15931845427633
H            2.01757172631637        9.94253705229312        3.33757667287276
C            2.18961947543445        8.20747618753617        2.09684889366620
H            1.37812799284257        8.49611066018416        1.43745156994182
C            2.86201502856132        7.00497221034114        1.85098298624221
C            3.90793754552874        6.63503761155774        2.69992315389536
H            4.45123705429435        5.71147453963312        2.53533814245144
C            4.26917548226786        7.44770685428019        3.76138577636897
H            5.08555895603222        7.14909257026328        4.41038351299710
C            2.41719443654111        6.19296746290447        0.68859304360301
C            3.10453255396252        4.86396007460269        0.45806317339023
H            2.99252282057790        4.22546297163864        1.33319453060978
H            2.65683327009166        4.37677052584337       -0.40604061411901
H            4.16666839187066        5.02015938584413        0.27387345425620
N            8.80427778860076       14.40408025118893        3.00749625115234
N            8.40591602093019       15.65959026404936        4.68791661876744
O            1.53884290558387        6.57447952456623       -0.04838789805323
F            8.23409012804378       10.72861418590832        6.16429678594447
F            8.38670869376061       10.81113166941559        4.02272848432059
F            9.53746337830271       12.15583724792787        5.24715542626842
F            3.94496644421700       13.70540549661907        4.47329951683984
F            5.28321330872372       15.25297650599072        3.84544581109375
F            4.89412870591090       14.95862332930183        5.93969732907428
Au           6.75689632271236       12.98960689404324        4.94838458759857
