53
 energy: -74.466029421011 gnorm: 0.000118309474 xtb: 6.5.1 (579679a)
Au          -1.39973090119837       36.08711711468760       27.84904931084852
Cl          -0.99595517227258       38.24118679943635       28.29720443926679
Br          -3.37522380966289       33.97807294925736       30.04741834572901
P           -1.82787442158164       33.88205532353824       27.41651089731010
Br          -3.24811536860035       31.19855168033203       28.38687370442894
C           -2.75239351116799       33.02952866618011       28.51404947566122
C           -1.40605502305497       32.69987810348386       26.09456163694671
C           -0.27965892802535       31.85529102380345       26.23303245100374
C           -0.22280594402754       30.69306749382851       25.46864970885087
H            0.60458107092338       30.01394776496802       25.60797454401508
C           -1.20788488342315       30.36092544717901       24.54920714774450
C           -2.20015736501277       31.30399766067226       24.29925236588348
H           -2.91811311262808       31.09084470653902       23.51979323622525
C           -2.31146300290632       32.48217971326882       25.02715699810162
C            0.91787542336660       32.20410549631584       27.12822847769352
C            2.13159637125233       31.29442097793797       26.85806362039727
H            2.40306446643172       31.30078854409316       25.80256507795222
H            1.94239675436057       30.26966990893202       27.17678965239691
H            2.98383884282256       31.66723175139897       27.42755278474613
C            0.57779706098257       32.06635128836237       28.62149871073593
H            1.49024393539113       32.12195780228167       29.21561913491226
H            0.09170619690332       31.10970543359109       28.81255303037003
H           -0.08420961197134       32.86711328559795       28.94905452423416
C            1.37514860168627       33.63875442246884       26.81403346346624
H            2.24016574824259       33.89945691364863       27.42388486549303
H            0.58679551945122       34.36087289292914       27.02294202237637
H            1.64658899217686       33.72368310878950       25.76165165553041
C           -1.21516116687765       29.04732874773937       23.77894379226294
C           -0.07914195653122       28.10527238112619       24.20281519457853
H            0.89556881328259       28.54380833051725       23.98826104139944
H           -0.15836526869104       27.17031790890221       23.64685018632885
H           -0.14039937526309       27.87455184654078       25.26656324650710
C           -1.06432512066380       29.34360108882967       22.27599807886816
H           -1.89495752994270       29.94655744311232       21.91027346542290
H           -1.04191223646786       28.41070833311526       21.71209118074153
H           -0.13579925461094       29.88502600439741       22.09317472668316
C           -2.55364991476466       28.33174304508028       24.03748618652796
H           -2.67761239466512       28.14676132291794       25.10483836993926
H           -2.57431663728710       27.37642047356966       23.51246045981227
H           -3.39374328774951       28.93254719659797       23.69045261485711
C           -3.35088696092937       33.52323280188003       24.58865327979402
C           -3.97296872651769       33.18117341933257       23.22129941523288
H           -4.60297833955402       34.01282960085003       22.90346983406448
H           -4.60072876306688       32.29228062810251       23.27862988364939
H           -3.20375782467962       33.03229652437913       22.46367662420202
C           -4.50952190827868       33.63814087199017       25.59302887554875
H           -4.18892472340214       34.13590649462387       26.50741820424329
H           -4.88980380372641       32.64887276269423       25.84737240648070
H           -5.31913498868558       34.22486732649737       25.15837175899645
C           -2.65400192371917       34.88381543829338       24.41835409826635
H           -3.37035258648943       35.63341724934224       24.08210039879829
H           -1.85334431913783       34.80550011120143       23.68268029845007
H           -2.22283773006975       35.22856637482332       25.35746509600561
