78
 energy: -122.630200816195 gnorm: 0.000482595868 xtb: 6.5.1 (579679a)
Au          -4.11742200959569       15.65334623794629       17.28883056711766
P           -5.21477730444034       17.48152694973541       18.66913192021249
P           -5.43759858772060       13.65343602285334       17.83506247313420
S           -2.10332569030957       16.15648302551408       16.08140095404528
C           -4.70125698526355       11.56459440211776       19.67490035108965
H           -4.88130070809377       10.83008638379949       18.89893181039188
C           -4.25630395815987       11.16309265870377       20.92595983408549
H           -4.09900217807658       10.11040254241006       21.12999985305797
C           -4.92308135568090       12.91381945716269       19.42003936387720
C           -4.00505583015798       12.09894112404669       21.91973091125159
H           -3.65778321162936       11.75512866089660       22.88738148682919
C           -4.19026650944044       13.46282688475893       21.69337262588050
C           -3.89692268959126       14.49327306293257       22.77313004853592
C           -4.01829300887558       15.90442675492699       22.21797643419936
C           -3.65831687824539       17.01725837382996       22.97746970293167
H           -3.28999898725394       16.88457142989715       23.98832696892104
C           -3.76104461149898       18.30283565378346       22.46437019919127
H           -3.46872771332343       19.14842621987946       23.07603870199451
C           -4.23152245829038       18.51323010355109       21.17649374526722
H           -4.29702624199703       19.51989434281203       20.78089615842333
C           -4.62453511497795       17.43047262416302       20.39704661952257
C           -4.50843101064371       16.14533695237921       20.93913777815240
C           -4.66500964028610       13.83520629488466       20.44110513603695
C           -4.91678977743095       14.32056124825231       23.91621043100328
H           -5.92657199614841       14.47440264030714       23.53566611367949
H           -4.72612652592461       15.04504520043352       24.70748528734950
H           -4.84939055895395       13.31737639092155       24.33617394549695
C           -2.46578485463706       14.27806692802870       23.30233258968081
H           -2.35433246413051       13.27657642994442       23.71536519921622
H           -2.23304749993207       14.99530919756989       24.08811889985673
H           -1.75077549278661       14.40370698570045       22.48957933418350
O           -4.91229767300577       15.13836461493377       20.10602685598816
C           -1.78733565642249       14.66647852724760       15.43920858193842
N           -1.56311526433834       13.62366729005064       14.98756913983033
C           -5.41498043172294       12.20773270936546       16.71440189671434
C           -6.46378914827613       11.28625491383058       16.63669229620149
H           -7.34529057620970       11.41543877813554       17.25526154608354
C           -6.38787304283916       10.20690759722139       15.77009635329090
H           -7.20926630841927        9.50047032501553       15.71954605949068
C           -5.26643921587689       10.03034620754352       14.96968136788482
H           -5.21244524490343        9.18617770098710       14.29137491545556
C           -4.22009936647916       10.93916235589823       15.03833385983928
H           -3.34273017936838       10.81290843528314       14.41454977621443
C           -4.29487265379884       12.02125311275903       15.90145603893071
H           -3.47140477888522       12.72632709526565       15.93529011906645
C           -7.23297142496387       13.90055499771873       18.08486441705441
C           -7.91777346931923       13.55001963032356       19.24886545094783
H           -7.38248422266890       13.10496223211408       20.07981242914573
C           -9.28476888809462       13.76212716000257       19.35233828544858
H           -9.80391740819561       13.48300185173400       20.26260845923646
C           -9.98672634106896       14.32590667767367       18.29638144010459
H          -11.05544633573275       14.48814170912339       18.37834645389092
C           -9.31342906600486       14.69170396778246       17.13776386685415
H           -9.85492116789454       15.14339351529899       16.31416652572148
C           -7.94732781124764       14.48701770034330       17.03621098793378
H           -7.42357852432745       14.78077823256976       16.13235433827744
C           -4.87226876152055       19.22409813380224       18.21672501773836
C           -3.75846390894977       19.48144956100974       17.41481412934277
H           -3.14361671038463       18.65655141330367       17.07163399291409
C           -3.43248905938076       20.77838558059639       17.04858166476156
H           -2.56409396840026       20.96073703260327       16.42573495418019
C           -4.21988625939784       21.83904481862648       17.47419931265544
H           -3.96905096788586       22.85362218380223       17.18580105275059
C           -5.33365228995260       21.59709261707066       18.26767716491625
H           -5.95332969270905       22.42230321486737       18.60095074543876
C           -5.65843303098821       20.30107936113606       18.63755532428266
H           -6.53331549354214       20.12360514465823       19.25334028240497
C           -7.03314063015001       17.51848159594254       18.89220330117679
C           -7.81236366919857       17.97113124370284       17.82191578167318
H           -7.32708067609950       18.32121737881551       16.91675326353920
C           -9.19466745133504       17.98818166017234       17.90928649905263
H           -9.78329058222731       18.35186649436832       17.07447512700640
C           -9.82471308361311       17.53718666053092       19.06222121256690
H          -10.90640881082242       17.54970696715045       19.13192526083012
C           -9.06317874044495       17.06036809833837       20.11985722790197
H           -9.54926175987067       16.69479677631818       21.01767196307979
C           -7.67884606749945       17.04690754255704       20.03576887291441
H           -7.09924233211595       16.67162799820015       20.87114094271729
