53
 energy: -88.328623591305 gnorm: 0.000171037155 xtb: 6.5.1 (579679a)
Au           7.16382741127892       12.78569276650400        3.51686999790721
S            7.42404136179703       11.36922148783203        1.71888998856762
O           11.13534360230829       12.02162781747831        2.17953876328781
O            9.61160813662599       12.23938498588756        3.79800478550928
C           10.04749859419123       11.78979975817835        2.70298962646541
C            9.07510743348582       10.87188365194391        1.91344674336831
C            9.42974180476633        9.73442240421768        1.26748687148514
H            8.65483507196375        9.26191967851659        0.66135786192057
C           10.67846467719318        8.99553849018808        1.26872042523574
C           10.85387211307846        7.99767125300010        0.29179426930366
H           10.07656665930828        7.84086272763511       -0.45105110009532
C           11.99490630663534        7.21508146491690        0.25000983285622
H           12.10199763262606        6.45588038576531       -0.52028257902221
C           13.00155942102049        7.39417808207635        1.19211918862342
H           13.89648210592797        6.78017952465258        1.16450232490222
C           12.84024165229469        8.36649041251569        2.17429557334667
H           13.61621191228953        8.50712568297291        2.92122499929017
C           11.70181051584129        9.15137913913296        2.21722560888776
H           11.60575932322678        9.89008477865139        3.00098464385051
P            6.75473453888944       14.33726393176008        5.17587536811224
C            8.17670195060623       15.33289955647003        5.75082396278334
C            8.00691461914088       16.48231930076027        6.52989852067352
H            7.01011793459014       16.80182537842373        6.81677573536482
C            9.10286540698357       17.22426930593584        6.94021340873995
H            8.95655938399898       18.11423622682700        7.54405574508418
C           10.38559361314963       16.82995405731694        6.57771468156891
H           11.24204256035586       17.41368750152292        6.89896396591769
C           10.56341665051391       15.69221312903973        5.80431764387484
H           11.56151882654442       15.38109250631509        5.51759650569373
C            9.46835461369271       14.94746702055567        5.39002265661466
H            9.62578688786925       14.06088259058356        4.78507644049742
C            6.01441000750005       13.75325095854545        6.74163743063292
C            4.69950559998987       13.27630242988178        6.72818972975682
H            4.11665498547761       13.34315119661161        5.81510109577560
C            4.13187316387978       12.72317521471835        7.86436539960143
H            3.10709004601502       12.36762258328446        7.83895973142246
C            4.87557217511036       12.61826719183110        9.03369746569302
H            4.43307028683982       12.18300399834605        9.92330299347714
C            6.18942222875041       13.06621870478544        9.05434001532231
H            6.77760196166246       12.97914597905702        9.96182702193999
C            6.75500229321219       13.62532532621170        7.91808639406424
H            7.78238962345504       13.97049944210354        7.94679189308997
C            5.58802978401646       15.65167100436181        4.66346061331577
C            5.62351429791350       16.03302457809765        3.32115082516117
H            6.30939997416252       15.52749895483771        2.64994182951628
C            4.79372743319823       17.03348042393375        2.84130456157146
H            4.83550756206414       17.31774856154003        1.79541319905225
C            3.90419433811702       17.66747106649683        3.69948642705200
H            3.24980960120887       18.44846897182678        3.32713697804271
C            3.85256703058261       17.29372498916801        5.03561186702986
H            3.15732580370250       17.78347009721015        5.70962646221498
C            4.68898883809903       16.29586174442670        5.51519003923758
H            4.63376024280191       16.01278158517345        6.56061556643045
