54
 energy: -85.628116605124 gnorm: 0.000300061887 xtb: 6.5.1 (579679a)
Au           3.28993628794703        4.30204215878592        0.44358123280194
Cl           2.74251007977257        2.35001623214632        1.65163580963311
Cl           1.33352684469787        4.20268182733861       -0.70494258119543
P            5.26703645563695        6.05499961537093        1.84855177526854
N            5.08411533142448        4.49866524535174        1.39413232922786
C            4.61103231873935        6.85985767076026        0.38578209097830
C            3.74665317426718        6.07534693459452       -0.38495865318844
C            3.24174174274751        6.60668694284428       -1.56305890990114
H            2.56714192517367        6.02107725457637       -2.17472226641423
C            3.58576601771528        7.89103163302262       -1.96334900619830
H            3.18608269974865        8.28696142485011       -2.89022614162955
C            4.42804263150618        8.67185029162121       -1.18272899834913
H            4.68585583454218        9.67782297364711       -1.49350731182838
C            4.94301543094764        8.15849703494091       -0.00343823306226
H            5.60617403417909        8.75762662407560        0.61136196211558
C            6.98332435953793        6.61768583363202        2.07124053207949
C            7.83187735850319        6.58091075080496        0.96024308210824
H            7.45917447386469        6.20359238659727        0.01419920041781
C            9.14185352119684        7.01648414150966        1.06742096952623
H            9.79420133958485        6.98109617735043        0.20249618129734
C            9.61785592418220        7.49826809427224        2.28061804520219
H           10.64345426938266        7.83896860409630        2.36371273524457
C            8.78076608596730        7.53973901401691        3.38674667980817
H            9.15109987103030        7.90944968134980        4.33601589615566
C            7.46917354372302        7.10041150594535        3.28637383902167
H            6.82747899511360        7.11916014729210        4.15963636413876
C            4.27527822554922        6.57105792475246        3.29599854862051
C            3.41533008671510        5.66207606488739        3.91400293093501
H            3.36558881215835        4.63882671809095        3.56038996339861
C            2.61746575365195        6.06396557381374        4.97397500623887
H            1.95468394173585        5.34958092701426        5.44819732014376
C            2.66484645646875        7.37653870526120        5.42240261072914
H            2.04087663621723        7.69023159892892        6.25137995235236
C            3.50560020284447        8.29208020519294        4.80247818150149
H            3.53650697170219        9.32071897797989        5.14334307197264
C            4.30499786982034        7.89526926088513        3.74225602876209
H            4.94938432335138        8.61755235699970        3.25257258306865
C            5.74954370344237        3.32732005933260        2.01322597844389
H            4.98550742808092        2.76833624365966        2.56678863583970
C            6.26508954070814        2.44193510893788        0.88178477353712
H            5.41702302262606        2.04206600603563        0.32735880141253
H            6.83886581982279        1.60978125516037        1.28866383739570
H            6.89005296488008        3.00882307591128        0.19197727994396
C            6.81992779032667        3.73921753623259        2.99645925055591
C            6.45393357833231        4.00650077731714        4.31598442273172
H            5.41498354341368        3.91754370216274        4.61366888722434
C            7.40454436596367        4.37373271485500        5.25709031686590
H            7.10119073635818        4.58087690472374        6.27728383155403
C            8.74191393749735        4.46292656851012        4.89571733102645
H            9.48783913078198        4.74490377797847        5.63004966289979
C            9.11921433388938        4.18270359617299        3.58970290527553
H           10.16256878466685        4.24663589625825        3.30087003044141
C            8.16663274564173        3.82515272476983        2.64674361768338
H            8.48361874222244        3.62021553738269        1.63101761618795
