17
 energy: -32.124618523645 gnorm: 0.000090511772 xtb: 6.5.1 (579679a)
Au           5.70274024869228        5.51336346715377        4.70699449277857
Br           4.19011799685774        5.69758811799028        6.65064083690438
Br           7.30353683851059        5.34924214180566        2.85437624260168
Br           3.87408382464909        5.90953307869929        3.17409097988499
S            7.61405938519532        5.12032265020999        6.11774171899523
C            7.79109638340800        6.65394300708664        7.07313036992468
H            8.68147045253328        7.16836410569172        6.71447213839501
H            6.91798751020404        7.28685901477528        6.91714549357484
C            7.10190294631548        4.12387697577936        7.55049742004562
H            6.17501406158816        3.60335758691555        7.31552729208591
H            7.89317194952944        3.39574068318874        7.73340821853488
C            6.92613074744088        5.07660877159469        8.72646052792914
H            5.90253166496679        5.46398613804375        8.71897734421847
H            7.10352268675031        4.56019090530375        9.67232914189312
C            7.90941200066874        6.22906390921441        8.52938932981245
H            7.67499692072636        7.06484669496547        9.19249590650939
H            8.92942438195499        5.89391275158072        8.73912254589873
