17
 energy: -38.531739109093 gnorm: 0.000288671577 xtb: 6.5.1 (579679a)
Au           7.27816271438175        3.34626800248758        5.33179308164163
Cl           7.36247742820101        2.58676655404286        7.47718488505794
Cl           9.32213632124024        4.29861431192460        5.53876318496878
Cl           5.18453829934319        2.39267563142576        5.03630133275756
S            7.36273221714579        4.12307406916071        3.13274399027339
N            4.65390556831326        4.46680245501293        2.74191009215207
N            5.61931320653375        3.16285645192294        1.33094142577671
H            6.33680524948417        2.61235710914186        0.88704690223276
C            5.83507616226982        3.90148692555224        2.43582847786640
C            4.41740745303562        5.34010018986066        3.87496909098051
H            4.06270175864840        4.74351174820681        4.71719180215232
H            3.67424093463111        6.08835671652826        3.60378492749088
H            5.35985737175335        5.81979408897498        4.13835886340550
C            3.69260123890070        4.05116393139520        1.85050200254788
H            2.66961072313977        4.37427946569575        1.93018533056512
C            4.30065116015840        3.23524085684504        0.95865963708781
H            3.91988219282765        2.70695149182239        0.10253497305108
