20
 energy: -42.638785164006 gnorm: 0.000023954866 xtb: 6.5.1 (579679a)
Au          -1.83261164067235       14.15627853184921       11.43125851365561
C           -1.68632683137918       12.04932419176682        9.28726666193782
H           -2.31616305181196       12.70647645134704        8.69979916514708
C           -1.25007675992783       10.81736493929524        8.78761548186032
H           -1.55512294664434       10.52506906284279        7.79037950480575
C           -0.45214105943388       10.00217295616016        9.55227394340385
H           -0.10881805587512        9.04572250055537        9.17428080624148
C           -0.07837037518836       10.42271993016163       10.84697999126918
C            0.73341371106342        9.69376405325435       11.74221211739693
H            1.11840007547282        8.72685424231133       11.44196534191896
C            1.02710947603018       10.21581478952200       12.98293429602774
H            1.65195367362342        9.64683523080450       13.66280088183455
C            0.54655657062079       11.46202562256254       13.40351081632690
H            0.79305736723348       11.84812238910073       14.38401797427348
C           -0.25481481056042       12.21011344444452       12.55308543723923
C           -0.56112415601953       11.68071144730789       11.27676489107899
Cl          -3.07082157415998       14.95110800159131        9.69650677064080
Cl          -2.26304131190057       15.99178659054366       12.64724832047425
N           -1.34946561314489       12.46258816710984       10.49391331365983
O           -0.74879268732581       13.38274745746896       12.85898577080723
