50
 energy: -83.317943761938 gnorm: 0.000203545306 xtb: 6.5.1 (579679a)
Au           0.03544853412234       -1.23254883852346        3.26077205028940
S            0.81547962677415        0.06696330640626        4.98398922124732
P           -0.69122831599893       -2.59660255961642        1.51878994088377
O            6.04578139840966       -3.56724355111251        4.52632895500351
O            4.22541117302465       -3.76142950074876        3.26182095356734
C            4.26118884200682       -2.07225496782235        4.94640606365281
C            4.80800590053085       -3.19725940890331        4.16090484324984
C            2.98401801338505       -1.61805330700588        4.62704620800374
C            2.39409126969448       -0.56051942388600        5.31612218346047
C            3.13196892320510        0.03543040752198        6.34836537406436
C            4.40310892319879       -0.41234411094118        6.67194786351097
C            4.98186116470286       -1.46637123132916        5.97912205590613
C            0.68192963665342       -3.13383966311882        0.45411431945907
C            0.63981850014012       -3.11555481274846       -0.94141778992977
C            1.74519490957825       -3.51097766455080       -1.68024188655545
C            2.90462844657950       -3.92533967652646       -1.03856761612611
C            2.95902460490489       -3.94261929517452        0.34866607029243
C            1.85744439093318       -3.54702210569184        1.08854281788618
C           -1.45263292650374       -4.16509192088781        2.05349024857608
C           -2.33583723218669       -4.12322138659744        3.13493345718196
C           -2.94545097493782       -5.27927150465218        3.59476689359032
C           -2.67345369510795       -6.49696681016078        2.98474227067608
C           -1.79147666620962       -6.55196179485148        1.91442139333868
C           -1.18435956162270       -5.39474783353782        1.44977518665271
C           -1.92478198911218       -1.91500886042958        0.36343711789357
C           -2.79380853036593       -2.71882689684601       -0.37853419232642
C           -3.70923073244707       -2.14645315022520       -1.24803138346111
C           -3.77069689840337       -0.76624654636481       -1.38814439188599
C           -2.91485417465719        0.04231927656068       -0.65264234683474
C           -2.00055741241900       -0.52862270218339        0.21895001562185
H            6.32381835323597       -4.30811601407265        3.96462736725004
H            2.44521516555407       -2.10491698129632        3.82236566093066
H            2.69045351196894        0.85998647014081        6.89659888759379
H            4.95118508261835        0.06703015728148        7.47601305470114
H            5.97486010027743       -1.81683948223450        6.23117018030363
H           -0.25867891389008       -2.78981892861584       -1.45364825383461
H            1.69961662726229       -3.49229344258305       -2.76366307386733
H            3.76692027330544       -4.22953347032785       -1.62120905072376
H            3.86098386780521       -4.25447506450074        0.86178991928617
H            1.91268330221319       -3.55588507000204        2.17129702525990
H           -2.54122277578119       -3.17396828173773        3.61882231855922
H           -3.62961992684612       -5.23197853313792        4.43451951054264
H           -3.14541564485586       -7.40320455462656        3.34703265223517
H           -1.57318931347199       -7.50132617377971        1.43823840790772
H           -0.49305720306971       -5.44799681933310        0.61633286737537
H           -2.75538435520711       -3.79731820022730       -0.27150363994617
H           -4.37826879942032       -2.78090486889643       -1.81866469441399
H           -4.48829065966747       -0.32122311654455       -2.06807332600840
H           -2.96240098503887        1.12054740643996       -0.75547099281498
H           -1.33654285484868        0.10402150207400        0.79834928276763
