115
 energy: -184.096871023493 gnorm: 0.000226076985 xtb: 6.5.1 (579679a)
Au           4.03191997733653        7.66289637760438        4.08621034946577
C            7.78564301901187        5.13171782171836        3.33479926661131
P            6.13657085998230        7.48090499555507        4.92146063745083
O            6.82221650495008        6.04157694099751        5.35913760636569
Cl           2.01398790836958        7.86073051845009        3.13256095110665
Si           8.50689930235577       10.46870946074784        3.23012618575161
C            6.98798921426029        4.99946418073610        4.45003885448219
O            7.06079557267120        7.90361121458620        3.67961066818304
Si           5.57886747736997        3.86483167391162        6.57754522153748
C            6.28733998990136        3.82000130565675        4.80848363397873
O            6.48146710712363        8.41467350148434        6.15337942654329
C            6.33380034958960        2.76835605681153        3.91750112691464
H            5.84850945942286        1.82625410111564        4.15222202285878
C            6.98036144776943        2.89621250190909        2.66567711552340
C            6.91208913397175        1.86146411975606        1.70292700186789
H            6.36332325949220        0.95899410273752        1.95065790388928
C            7.50708655994350        1.99971137231170        0.47726088119325
H            7.44486692474738        1.20494354078675       -0.25732299244913
C            8.18654853839996        3.18804031288955        0.15864193736294
H            8.62687639245234        3.30388257366286       -0.82536447315785
C            8.28828652800778        4.19971312331043        1.07773328667380
H            8.79970262332351        5.11736229412107        0.81162401026400
C            7.71232180543094        4.07902241899822        2.36490134642683
C            8.71919476325165        6.26580290786630        3.12719024228792
C            8.33842472254196        7.58484479736130        3.23537517449014
C            9.15823899099460        8.69750694264865        2.92676428926430
C           10.45004588648472        8.41553041864592        2.52283824425478
H           11.12328122836158        9.22325484308784        2.25139806363653
C           10.95088133235120        7.09459613005390        2.49652495262338
C           12.30720000252678        6.83958408229099        2.18122421846887
H           12.94310809481077        7.67732727969444        1.91509926750906
C           12.81364590599056        5.56866317174493        2.22947445489359
H           13.85446438168064        5.38111024291793        1.99139409314498
C           11.98566913014825        4.50000557982949        2.61523277853875
H           12.40264218668540        3.50187536685569        2.68951533281821
C           10.66311607251171        4.71233184072062        2.90441883310256
H           10.04471742752997        3.87989692819320        3.21839638966679
C           10.09462173764993        6.00641479840936        2.82358627929124
C            8.84147028945830       10.87725417704789        5.05580687101820
C            8.32166547496097       12.04265074046369        5.64920109801397
H            7.68838728179701       12.70468136770186        5.06503612081277
C            8.59411370813646       12.37358442828587        6.96753939963214
H            8.17356155017224       13.27673719463754        7.39661968094651
C            9.40400686184114       11.55094955819657        7.73903131295151
H            9.61622517359630       11.80663937778578        8.77136847521443
C            9.93624041501335       10.39678772803951        7.18185435616180
H           10.56689627822372        9.74698764564577        7.77927791106939
C            9.65650584884914       10.06683096226423        5.86440775107809
H           10.07958316679215        9.15405528148937        5.45490953605973
C            6.66426952757067       10.67087281848051        2.82437890661658
C            6.21577139028405       10.61511549665362        1.49292295105724
H            6.93820433489731       10.50545627378935        0.68827381895742
C            4.86849975902855       10.68693714281761        1.17333768035239
H            4.55614007221911       10.63140674978388        0.13620063156576
C            3.92036966540749       10.82476653419205        2.17684405852965
H            2.86574735585611       10.87081076466732        1.93162894840854
C            4.33178589360041       10.89629806948664        3.50231653504737
H            3.59973259179022       11.02184856641399        4.29217910301839
C            5.68056069595231       10.81925944898498        3.81781187103412
H            5.97312764186123       10.86715611688812        4.86233217547457
C            9.52096748743534       11.62789634673296        2.11332378377281
C           10.02403471214141       12.86140226055491        2.56071975357518
H            9.86516038779202       13.16184181781165        3.59258149224300
C            6.99473608107352        4.14079771118066        7.81790894301088
C            8.34996104222323        4.20445971163983        7.45363481056277
H            8.63182741038299        4.09064830123616        6.41115414885909
C            9.34923167059967        4.41423807547467        8.39263534500884
H           10.38587864441646        4.46102438455244        8.07643646714904
C            6.70096233520131        4.29071628174297        9.18622140866903
H            5.66755674239596        4.24557644182633        9.51987177339993
C            4.78044657096643        2.16702123671694        6.90601348691743
C            3.82358568702854        1.64060786925309        6.01763949964275
H            3.53895289263082        2.20845059191002        5.13593370637578
C            5.10128795653384        1.37687568295275        8.02301258071878
H            5.83790361582111        1.73257522262438        8.73762801231290
C            4.50552384482120        0.14380143019716        8.24222291739193
H            4.77768061756348       -0.43931366076149        9.11558379397551
C            3.56474934160309       -0.34511069935417        7.34707635325324
H            3.09848527773595       -1.30946043390749        7.51648829921597
C            4.26189745334478        5.22113439971387        6.80182872022925
C            4.48341194140060        6.34207358531588        7.62052979985458
H            5.42129780874298        6.43454400838553        8.16009029144534
C            3.53837792474174        7.34741250627925        7.75791753423986
H            3.74946259481285        8.20122556067683        8.39331554740229
C            2.32959717267187        7.26395533686547        7.08087784735611
H            1.58890513726905        8.04851094780875        7.18404422882282
C            2.07426351929113        6.16373043776276        6.27120904919736
H            1.13233426097136        6.08913940840394        5.74049395085331
C            3.22570055365265        0.40873347649503        6.23166486785729
H            2.49258560036238        0.03404754911621        5.52540245038933
C            7.69574307376841        4.49992539408955       10.12888340163820
H            7.43404717666643        4.61460948900620       11.17530719771723
C            9.02551217808563        4.56476610461922        9.73443435544974
H            9.80590393991611        4.72685861852994       10.46986853494021
C            3.02545041867080        5.16286461954215        6.13467591310734
H            2.80019361629261        4.31767925477851        5.49141729645147
C           10.72714269532673       13.71089219613043        1.71997510711270
H           11.10329054361218       14.65557324838129        2.09798475921245
C           10.95121051892293       13.35427945176413        0.39754895312904
H           11.50124223218570       14.01739877348423       -0.26112673620169
C           10.46837924739725       12.14199311790693       -0.07645256882252
H           10.64095608795014       11.85503033244969       -1.10826823441117
C            9.76653966825523       11.29594667022871        0.76771661155264
H            9.40234452033935       10.35043585299327        0.37445345917713
C            6.95904875488839        8.65087948754668        7.42632501106808
C            6.44972742875920        9.73379718027155        8.12873140282192
H            5.70738053012832       10.37297761980705        7.66763784149515
C            7.91504777531961        7.80865506544433        7.97621573801080
H            8.29263092439796        6.97231726153130        7.40197100154008
C            8.36657910414062        8.06140199368432        9.26296708670084
H            9.10880774608001        7.40694848762523        9.70561154858941
C            7.86920160115270        9.14094999437019        9.98107132891698
H            8.22648383625739        9.33335899413635       10.98590384663828
C            6.91556449251814        9.97559125300863        9.41316990393286
H            6.52911880665003       10.81970746549143        9.97259260074002
