44
 energy: -106.440431169439 gnorm: 0.000055162419 xtb: 6.5.1 (579679a)
C            5.17922931328369        7.55018720468477        2.20941693900234
C            4.75974335168283        6.82052824555901        3.30183127379364
H            4.06507179324416        7.23652495134433        4.01976193706110
C            5.23948326242763        5.52607159820207        3.48239849426080
H            4.90907779335113        4.95392240918559        4.34098321451304
C            6.12986484095815        4.97806624908344        2.57216291462714
H            6.50120576945580        3.97049241279079        2.71584275986438
C            6.54882465799920        5.71460925159456        1.47568471332797
H            7.24488838534106        5.27922025036933        0.76868293909037
C            6.07715007179349        7.01433256831721        1.27979022716998
C            6.45778025344301        7.86368921033837        0.16205210819209
C            7.33282087052989        7.51793862947008       -0.86252517291180
H            7.79555505901028        6.53945659106067       -0.86902599128446
C            7.60666412532761        8.42817287854296       -1.86837446517590
H            8.28641670179274        8.17090853638969       -2.67179750804051
C            6.99516796334373        9.67476345998776       -1.82857529360080
H            7.18062377462909       10.41677576476742       -2.59428082578443
C            6.13565989840157        9.96330426038559       -0.78771572617262
H            5.63563766870678       10.92097714470171       -0.71350041087167
C            3.39120995174445        9.68329269918956        3.34937212583238
C            3.85589057869294       10.22705516770562        4.54863807761182
C            3.02555268406671       10.40995382524473        5.64818041879676
H            3.41899597204281       10.82956608705401        6.56667873499171
C            1.68697771813370       10.04709085739957        5.55840958130286
C            1.17837193978020        9.54850383777882        4.36502440024809
H            0.12812351216105        9.29482542239141        4.28057551957802
C            2.03084257692121        9.37587154302356        3.28084158700763
C            5.29043899567900       10.67044436311483        4.58899007325367
C            0.76999277369335       10.24680409206514        6.74521349122634
C            1.50158622568086        8.90319304205765        1.95697374824593
N            5.87621461975433        9.08030996003946        0.17922286656288
F            6.12464916996100        9.64418152766576        4.35504155301638
F            5.51092953433188       11.54968240454978        3.57773909881103
F            5.64708686220577       11.25019748050980        5.71646573830950
F            1.43701535772968       10.12179827803796        7.89094371441902
F            0.22807691779394       11.46689570731466        6.71744899567732
F           -0.22199912385732        9.35855746872705        6.73795423824865
F            0.19917010230365        8.70926627271965        1.93189278577167
F            2.10865639024856        7.77090714494093        1.56550880765569
F            1.80682477944796        9.82172978203563        1.00439945479602
Au           4.61760388629340        9.42107618977374        1.76038543476620
O            4.09505387440983       11.58440024030764        1.06018911816671
H            4.38816803546607       12.32102273118919        1.60351437995242
H            3.19520111059290       11.76493225838612        0.77488392869281
