55
 energy: -71.788605587244 gnorm: 0.000258714623 xtb: 6.5.1 (579679a)
As           1.51699962787520        7.26335374454772        3.68289565712871
Au          -0.16476314375131        8.77843416870851        3.00169239473623
C            2.06668518336096        7.44666290139175        5.53076367484810
C            2.97241507433262        6.53169919461230        6.07765662633635
H            3.34758392174541        5.71617840211546        5.47274793196420
C            3.40176519094329        6.64021742563599        7.38897919764824
H            4.10422028131402        5.91690592278980        7.78557079333195
C            2.93043853736075        7.67317674496854        8.18601337867670
H            3.26299356893001        7.76820640268867        9.21277291746546
C            2.02536523561210        8.58179514199384        7.66411019776040
H            1.64474707336174        9.38773204845705        8.28117401837493
C            1.58560122282553        8.47930872484478        6.34507739863411
C            0.59687394741718        9.48712760422099        5.88496969992682
C            1.01837904640894       10.70571949037201        5.35068741615482
H            2.07801628874800       10.89716673965944        5.22614707102010
C            0.08813910335567       11.68199186126972        5.01615740326763
H            0.42632911449414       12.62934039840296        4.61263421466297
C           -1.26613031348466       11.45433243784042        5.21831280493668
H           -1.98844553633389       12.22398232441528        4.97222075672908
C           -1.69427080786948       10.24142161315049        5.74098751394276
H           -2.75024398731482       10.06191984943153        5.90634771801884
C           -0.76909748506153        9.25947588855987        6.07374092947438
H           -1.09881978366441        8.32497784457935        6.51322554373968
C            0.83263357296604        5.37563781861743        3.48214045879912
C           -0.06463198387983        5.33943011571529        2.24351226439557
H            0.49332700551479        5.58964660626564        1.34203249138491
H           -0.89518816901627        6.03951277175429        2.34445506362885
H           -0.47777593121610        4.33804075833383        2.12101458738435
C            1.92037873140992        4.31518581852202        3.33250239024624
H            1.45076936076993        3.33364238221521        3.25498419507441
H            2.58735186832430        4.29947527983240        4.19209517798393
H            2.50790383688758        4.47957672120526        2.43076188951972
C           -0.01394738392994        5.07507280041972        4.72000966728205
H           -0.78393331152223        5.83569402705043        4.85970544452060
H            0.60362173398479        5.03645553159890        5.61632715821121
H           -0.50606245354449        4.10988008260781        4.60079906414530
C            3.17010576668721        7.65350326478000        2.60198821376643
C            2.89226643724345        7.32736014320472        1.13559980508222
H            3.73214445833703        7.65614668876357        0.52294021447784
H            1.99459603956515        7.83897541158773        0.78546845921603
H            2.76476212032934        6.25600157919926        0.98818066883607
C            4.41028514615206        6.90139846869195        3.07681658744847
H            5.25446228348919        7.17093534997869        2.44108774902783
H            4.27429899875221        5.82338131726577        3.01720619007318
H            4.66081718990186        7.17116837305135        4.10185630597337
C            3.42232280891981        9.15599152617130        2.74685351606532
H            3.59971066719021        9.42340182658073        3.78861228691230
H            2.57239680884842        9.73277126898215        2.37873603652224
H            4.30182969194554        9.43798318003800        2.16808208782482
C           -2.32327315424483       10.75314871346271        1.84585810966473
C           -3.28580155637038       11.66456683842148        1.29386429823572
H           -3.51286457397624       11.38386463131143        0.26452844215279
H           -2.88389666270177       12.67851932679098        1.30743472961378
H           -4.20325161399825       11.63544139658346        1.88307844305550
N           -1.55573909604992       10.02586310280604        2.29348274490099
