72
 energy: -97.819294211600 gnorm: 0.000333532347 xtb: 6.5.1 (579679a)
Au           8.39832438425259        3.02234973193120       10.47409824977988
C            7.30903714086096        6.26881444255122       11.03719854588817
C            7.11932175535675        6.29842366751420        9.65438059168262
H            7.59481022543194        5.54311920991147        9.03787244937429
C            6.32912562536899        7.27499622712136        9.06909855877236
H            6.19028636297506        7.28541863713268        7.99392077764167
C            5.71152287459867        8.23383741100466        9.86101454041758
H            5.08973765693222        8.99634454241310        9.40567717665620
C            5.88612216017896        8.21037788868185       11.23821451433429
H            5.40127827035175        8.95476243150689       11.86007377852174
C            6.67888498293545        7.23529602648047       11.82447108007120
H            6.80241114606107        7.21916655744951       12.90167993904576
C            7.78134187590175        4.80930369592354       13.43251098517153
C            8.51168319751543        5.22356628038108       14.54655528364305
H            9.48056979445833        5.69182260461866       14.41501543083840
C            8.00582138773758        5.04202848770294       15.82563480055207
H            8.58354061021734        5.36959714658832       16.68287311321591
C            6.76690121114284        4.44452516269583       16.00901632831443
H            6.37361002483082        4.30444560109471       17.00951666389524
C            6.03393095996142        4.02138192864130       14.90732375195199
H            5.06769959410758        3.54927582294425       15.04535099359138
C            6.54029728615209        4.19662883017605       13.63007272411520
H            5.97051818212288        3.85765354366551       12.77100074457251
C            9.99521866840022        5.76487245753297       11.88477417750035
C           10.16376933112955        7.14311972023091       12.03341536396857
H            9.29766250771243        7.79548244508759       12.05101224533727
C           11.43377027344004        7.68623391030664       12.15345654278538
H           11.55162183052076        8.75827644884384       12.26655950359828
C           12.55142505487342        6.86256713732363       12.12815632067173
H           13.54315664755129        7.29039009034155       12.22185611591245
C           12.39643004184656        5.49126703817345       11.97645940501172
H           13.26612664364241        4.84441635165317       11.95067596553488
C           11.12749421260255        4.94818119815097       11.85099864257305
H           11.00544881408008        3.87805007959517       11.72200546642479
C            8.42110432997663        1.36787136363268        9.38375986662883
C            8.43163608027355        0.36190410945396        8.70626355824442
C            8.43707894105696       -0.81794963708655        7.91135479358175
C            9.45771795774006       -1.03174102838115        6.98043069763964
H           10.22976160942518       -0.27804140298964        6.89093764917649
C            9.47086295430733       -2.17979758369416        6.19885176118741
C           10.55964213941001       -2.46408814994390        5.16848671975814
C           11.61680360273635       -1.35192641604968        5.10248440574217
H           11.16544975544577       -0.40029409377756        4.82109243967145
H           12.36698827431057       -1.60688118721971        4.35231555745873
H           12.12184643115533       -1.23590210373863        6.06164335663840
C            9.91464482805566       -2.59535890190272        3.77673074989501
H            9.20151250777611       -3.41888622135983        3.75142346483609
H           10.68080055695066       -2.78089091389762        3.02278166891973
H            9.38895429725519       -1.67480667793694        3.52110017705725
C           11.26994695835922       -3.77930628780856        5.53734086109710
H           11.70077266231582       -3.70282628076885        6.53616511355997
H           12.07079886653763       -3.98698876790744        4.82646413286080
H           10.57371410685643       -4.61745594195158        5.52460219816270
C            8.44370123343205       -3.10966694036726        6.36670849985172
H            8.44588481209701       -4.00842134192423        5.76017901680698
C            7.41392017584088       -2.92103457668516        7.28966033401974
C            6.32968464881531       -3.98754080005337        7.41125468844733
C            6.98109489520888       -5.32413850987155        7.81056603521146
H            7.51088211802560       -5.21246783838869        8.75711930666035
H            7.69181800085699       -5.65510959967252        7.05377520225387
H            6.21818024698062       -6.09514336207377        7.92612490390568
C            5.61991275729019       -4.14121343526113        6.05373654347430
H            4.82481266335485       -4.88442018155891        6.12663253843875
H            6.31823621917616       -4.46019314972143        5.28042762668046
H            5.18149837053612       -3.18930749563967        5.75241843863102
C            5.27110411553430       -3.63717192783699        8.46742930840994
H            5.72223172269850       -3.54032850375131        9.45516050945479
H            4.52418179731325       -4.43131325232182        8.51162970437128
H            4.76215523789467       -2.70633843158230        8.21638393355537
C            7.42063332689556       -1.76591459906147        8.06067561646482
H            6.64633771893095       -1.56933610262992        8.79136783997119
P            8.37249234386166        4.95563341633849       11.71528000988231
