17
 energy: -32.363508149874 gnorm: 0.000144858133 xtb: 6.5.1 (579679a)
Au           0.00025499557820        0.00017203751105       -0.00042450629164
S            0.45561474568279        2.24218765555662        0.35957319968726
N            2.26135639147917        1.16513751833552        1.99427188013172
N            2.17616283035167        3.44026886623371        1.87063209861542
C            1.70637370728856        2.25882672597496        1.47591859696476
H            1.92470649147409        0.26373545785400        1.71214508947342
H            3.01092430766872        1.21929652082745        2.66202665775814
H            1.76936018107461        4.27645043545302        1.49041610195736
H            2.92373631028461        3.52145278870374        2.53702180432329
S           -0.45548089971193       -2.24228386722128       -0.35969600685147
C           -1.70637001618282       -2.25885558901126       -1.47590601013076
N           -2.26143297068747       -1.16514737168456       -1.99413400189490
N           -2.17620848956346       -3.44028207290217       -1.87060001538743
H           -1.92470140545518       -0.26375380385372       -1.71207249021436
H           -3.01107302360998       -1.21928401071877       -2.66181116945696
H           -1.76934612504001       -4.27647714193716       -1.49047367991776
H           -2.92387703063571       -3.52144414912472       -2.53688754876698
