250
 energy: -358.831345293999 gnorm: 0.000767520254 xtb: 6.5.1 (579679a)
Au           0.83069757788950        0.38387457562639       -1.01012886949270
Au           2.58171414737139        0.24689028032824        1.57990219967143
Au           3.28118148292175       -1.51719892282558       -1.03675602431670
Au          -0.83925386975857        2.23516280495048        1.00114796129136
Au           0.70068632052036       -0.92880646730453       -3.75071361616189
Au          -2.11035049951184        0.93296743358025       -2.22376810852503
S            4.10592982134616       -1.48278373347729        1.16538227722463
S            2.95595915084306       -1.44674078992930       -3.36854436775249
S            1.47103055677251        2.28355029095054        1.88957577496399
S           -1.60155573753355       -0.58557956837431       -3.94403477204055
S           -2.73614009054799        2.42780988002116       -0.49909230846647
S            2.34703766957268        2.14132020780948       -1.63357987324303
S           -1.01354475623810       -1.08400700578941       -0.42797662265955
Au          -1.58942933998294       -0.69361130305006        1.81084777478321
Au           1.29919283357418        3.92833094241803       -0.45766200054585
S           -2.65572457669688       -0.34865592266558        3.86574184506965
S            0.14616862111797        5.89775254702025        0.23645939485120
Au          -1.09005050556861        5.04984770037479        2.04439681119549
Au          -2.27013073792052        1.97373173378766        3.74013671343940
S           -2.13123101449561        4.31067080308329        4.01735221576455
C            3.25743771112346       -3.06365439220540       -3.95728783427840
C            4.44945344926655       -3.70073859341837       -3.62232976506018
C            2.38624746193616       -3.70160796136967       -4.82965105451132
C            4.76129116039623       -4.93664234512342       -4.16306062366914
H            5.14359804218417       -3.21836938891719       -2.94423880739504
C            2.70038599643000       -4.94215729592605       -5.36585170425376
H            1.45338597168045       -3.22216089044538       -5.10317249618249
C            3.89600378498071       -5.58466890932302       -5.04903130498317
H            5.70688439763333       -5.39140396802748       -3.89017404896247
H            1.99175623634222       -5.38965482614021       -6.05162026728229
C           -2.07226963545503       -0.02463645324492       -5.52643232233796
C           -2.97416282624337        1.01913452414198       -5.68093631221012
C           -1.64014395453934       -0.70887262760025       -6.65942695432685
C           -3.43924481113933        1.37292294974782       -6.93907698938646
H           -3.32835760208930        1.55224975102352       -4.80650550076401
C           -2.11561700465445       -0.35818902556264       -7.91261099226113
H           -0.94246834305940       -1.53204141069895       -6.55637652418163
C           -3.02395193152246        0.69049942830057       -8.08130616291216
H           -4.14907618488743        2.18800680153495       -7.00478184255132
H           -1.77320533214753       -0.92833047776444       -8.76892338091527
C           -0.39037797193055       -2.70400004543761       -0.67097263255608
C            0.40773455763406       -3.33703642358818        0.27282392075946
C           -0.65054810295948       -3.34476172270979       -1.87629502850339
C            0.94774444442498       -4.58285660304484        0.00201402257136
H            0.60528898932697       -2.85570854720558        1.22355209142119
C           -0.09094783432824       -4.58512406509459       -2.14806558648799
H           -1.30219565235704       -2.87661411464605       -2.60333575412655
C            0.72658478116393       -5.22389937491014       -1.21904754865096
H            1.55861554378170       -5.05466592711509        0.76175892559001
H           -0.30953053179165       -5.03982576715346       -3.10613012735966
C            3.53904422699219       -2.93735994336500        1.95083448100500
C            4.14272730146265       -4.15035696451001        1.63651935235732
C            2.55328875155733       -2.91393653041321        2.92993210332355
C            3.75724228986363       -5.31727447756712        2.28088871249721
H            4.92232211374264       -4.18190271730861        0.88461000446449
C            2.16184860521706       -4.08342003092245        3.55899595311084
H            2.09419847690499       -1.97014979909675        3.19966280798877
C            2.74997213039481       -5.31018600357950        3.24545518650119
H            4.26257057863533       -6.23633382864443        2.01163112793331
H            1.38029462598297       -4.03093783132217        4.30786717200191
C            1.82409141913593        2.37913109910677       -3.29073278557607
C            0.65650407685069        3.04634974092220       -3.63790223730841
C            2.62884778043716        1.86682779722806       -4.30425226236486
C            0.31052479994037        3.22119426840073       -4.96858046149345
H            0.01143253873630        3.44301160078835       -2.86272478024410
C            2.28199843112357        2.04987432405079       -5.63263362850881
H            3.53652053068350        1.33439008171486       -4.04644095286090
C            1.11913590385007        2.73411201453502       -5.99357757539453
H           -0.60740226875294        3.75364340229455       -5.18474564374780
H            2.94355897566063        1.65430495187005       -6.39487677205474
C           -0.95590075746085        5.94562928424363       -1.12703939859111
C           -0.44424928988056        6.29166275994769       -2.37433627585706
C           -2.30958077245510        5.65329175069186       -1.02388758126882
C           -1.26470896633898        6.33152101928380       -3.49068459247856
H            0.60939642601434        6.52413283495930       -2.47282994859193
C           -3.12397647554045        5.68314660651960       -2.14319201991673
H           -2.73147160138538        5.37307974839549       -0.06603847272810
C           -2.62142707289292        6.02389093502939       -3.39998769255666
H           -0.81650067526933        6.60070528395168       -4.43909480527217
H           -4.16852954448119        5.41947751212791       -2.02176658266025
C            1.26930161376053        2.67364151455479        3.58319407676350
C            0.89434598318916        1.71387749076304        4.51419157415460
C            1.37772805097530        4.00101783780989        3.98522212997236
C            0.58141548300872        2.08280227565864        5.81502149122240
H            0.84405935911943        0.67185523177711        4.22211754036355
C            1.05987440081160        4.36192404403386        5.28458736898791
H            1.70945038538131        4.75137468493635        3.27785627937781
C            0.62310011524283        3.41656687753351        6.21506946289060
H            0.28799295658595        1.30324276076188        6.50537752446273
H            1.13848866666752        5.40671644419202        5.56256345808944
C           -3.82005280298536        4.75070057544438        3.90984354448830
C           -4.72022259364495        4.20232129150614        4.82030722468947
C           -4.29434275088580        5.65308943029442        2.96720402604983
C           -6.06229745504176        4.53685903906231        4.76798123531187
H           -4.36559914906706        3.50517041179695        5.57037816091646
C           -5.64038629128285        5.98491813688769        2.91788704018944
H           -3.60665740960798        6.10049720595080        2.25918127295068
C           -6.55353850919675        5.42899871731994        3.81032068012690
H           -6.73341597613584        4.08463934281722        5.48962767149893
H           -5.95950725076431        6.68657116358365        2.15737456636850
C           -1.56967445422139       -0.79211231849166        5.16375999331789
C           -0.36703234394515       -1.45045940154109        4.94074579112083
C           -1.93324588688765       -0.48286232491253        6.47024133546223
C            0.47384281230375       -1.74869655767815        5.99969415274740
H           -0.08620280160494       -1.71992392734089        3.92937720223143
C           -1.09618054828501       -0.80160517387757        7.52926694925950
H           -2.87503300669670        0.01884532807318        6.65872641678275
C            0.13301011054456       -1.42372154896000        7.31400693142630
H            1.41937345720781       -2.23397617441626        5.78823658298368
H           -1.42110275594502       -0.54092777053029        8.52872663186369
C           -3.94738681749807        1.62432188929395        0.47130050761212
C           -4.57708209762455        2.37207625868405        1.46429749766265
C           -4.27794859463637        0.28183646941492        0.33896441349390
C           -5.47628879525266        1.77281764692484        2.33084293397587
H           -4.36427097619213        3.43073473177829        1.54888678329340
C           -5.17546975705028       -0.31499088363574        1.21495916707792
H           -3.83525729375626       -0.30440803851078       -0.45613802112517
C           -5.77049367576400        0.40959473585828        2.24475973305062
H           -5.94399638580265        2.38725594774224        3.09119179431652
H           -5.38933170300697       -1.36747421257214        1.07725168389709
C            4.30462159817478       -6.92000869273060       -5.65835219744784
C            4.69827594920916       -7.91014805515516       -4.54812733643968
C            3.18022705964743       -7.55843430823046       -6.48667848792984
C            5.51366560390819       -6.67627801565635       -6.58066288975152
H            5.54354408247435       -7.54151800993203       -3.96826828376615
H            3.85748300989932       -8.06953891234425       -3.87288725488378
H            4.97720488574908       -8.86921874805470       -4.98587096468114
H            2.91662311214238       -6.93377951125669       -7.34024613954050
H            3.51257924354554       -8.52552699745084       -6.86612805994643
H            2.29148413373643       -7.71926205407564       -5.87591385421694
H            5.82793619096672       -7.61163196561053       -7.04471994748782
H            5.24783846895127       -5.96807248082992       -7.36587218844305
H            6.35279240583336       -6.26925770838166       -6.01688720948940
C           -3.55594482145621        1.01275752629035       -9.47245774465218
C           -4.42187190977339       -0.17142187144202       -9.94089014367618
C           -4.41502643826071        2.28568112551165       -9.49198299439577
C           -2.38899562245951        1.21340314863091      -10.45489755855620
H           -3.83061439265351       -1.08581610366102       -9.98711414207727
H           -5.24824639110892       -0.32801123135908       -9.24710312943967
H           -4.82997606953550        0.02883073232076      -10.93207905739234
H           -3.84666184362805        3.14238020269521       -9.12861157275755
H           -4.73174910635321        2.49505553126274      -10.51453458757326
H           -5.30929615492719        2.16681269554077       -8.88011394389145
H           -2.77410363403845        1.45586997924992      -11.44601336380453
H           -1.75448782747668        2.03426606719859      -10.12046974951993
H           -1.77923665776014        0.31447284546067      -10.53698270329024
C            1.37918279794269       -6.57564290516062       -1.47599646119525
C            1.07026603333723       -7.11868104382147       -2.87766118813488
C            2.90434496810551       -6.42691656173210       -1.33559930975955
C            0.86165440759584       -7.58850817851683       -0.43954677076459
H           -0.00039620542474       -7.27446900297197       -3.01111235768108
H            1.42867609628666       -6.43354439747239       -3.64596315852507
H            1.57147463390298       -8.07762198627100       -3.01518318305405
H            3.17547191523545       -6.11444303791144       -0.32786633293813
H            3.39538434257968       -7.37822934490055       -1.54250851023008
H            3.27541976199022       -5.68114787981476       -2.03876903266775
H            1.30352921347411       -8.56906538443604       -0.61922302534764
H            1.12043525554564       -7.27549568393464        0.57159418752022
H           -0.22297732878649       -7.67488014014795       -0.50816574153552
C            2.28090198751536       -6.56516741498625        3.97004473209987
C            2.61374298134342       -6.42340054776923        5.46635189487782
C            0.75961795086277       -6.71677147146082        3.79139863602624
C            2.95562488739616       -7.83758511852266        3.43874832469856
H            3.68870453529949       -6.30002134073880        5.60048135127872
H            2.11020508597940       -5.55711818503711        5.89549383927237
H            2.29313306319815       -7.31321260719504        6.00901846999840
H            0.50986169563364       -6.75557912756861        2.73074440735811
H            0.41725930280683       -7.63801144775826        4.26360685650882
H            0.22379719838414       -5.88172610057217        4.24144676852626
H            2.56468963042538       -8.70595439302136        3.97041785555948
H            2.75257121615277       -7.96952452763355        2.37564001022640
H            4.03420620133434       -7.80368308820740        3.59307384463399
C            0.80865764120218        2.95256448581555       -7.46834300787285
C            0.85637972884592        1.60760786864546       -8.21338369028960
C           -0.57426113670404        3.58013473641251       -7.68925326376142
C            1.87293491391015        3.90125833397237       -8.04993944205348
H            1.85617007479709        1.17552854305988       -8.18847186637955
H            0.16278115462467        0.90248160297566       -7.75582645471972
H            0.57350345852909        1.74836439461000       -9.25700700912082
H           -0.62780267588968        4.57454366641543       -7.24579702619125
H           -0.76379449182150        3.67993294339565       -8.75876811758661
H           -1.35859097676361        2.95710836812917       -7.25947899663243
H            1.67889590646370        4.08023105199772       -9.10798804616469
H            1.85071333545067        4.85584039921699       -7.52348690645877
H            2.86955390484414        3.47242573320262       -7.94727351990174
C           -6.70964718853528       -0.21621959924308        3.26736326818158
C           -6.16833966646063        0.06145190055262        4.68176536751081
C           -8.10618212703495        0.41093466481524        3.11302500295233
C           -6.83367711006399       -1.73681600297711        3.09599510956043
H           -5.15537754283932       -0.33375471192283        4.77360046829075
H           -6.14186768132950        1.13054554437913        4.89146323477053
H           -6.80192777013057       -0.41906687543857        5.42791557581067
H           -8.48812094964056        0.23248294009308        2.10753359746542
H           -8.79768514472707       -0.02683531582408        3.83358972729654
H           -8.06698076883439        1.48664271366046        3.28210353505874
H           -7.48846466639980       -2.13795421781627        3.87059945357646
H           -7.26295738318217       -1.98908984597110        2.12622501456427
H           -5.85954372142050       -2.21736512195687        3.19064654159245
C            1.11759529345382       -1.73277888627946        8.43366147119368
C            1.43262718335543       -3.23960164665106        8.43496041915712
C            2.40871114453530       -0.93193196510893        8.18275553455365
C            0.57427381598754       -1.35376736120056        9.81840133610411
H            0.51494284097935       -3.81330127577121        8.56738436051129
H            1.89935789689846       -3.54455531136537        7.49851392736948
H            2.11518553295104       -3.47852123358245        9.25098659845296
H            2.18644972096930        0.13559515512789        8.15794624545926
H            3.12886945881541       -1.12032335312228        8.97943030210537
H            2.86299950542806       -1.21186981088434        7.23262463078012
H            1.31304283818147       -1.60572474569754       10.58013829346186
H            0.37576339303406       -0.28352570428487        9.88073216263226
H           -0.34316002140584       -1.89929944751942       10.04024908893780
C           -8.04318354686728        5.74515047280551        3.77743045956291
C           -8.41130266562168        6.73706457380462        2.66480307174912
C           -8.82392804316826        4.44018247519577        3.53758156273256
C           -8.45771270804016        6.35746394952944        5.12747771370116
H           -7.89753423533719        7.68842559721481        2.80409300758279
H           -8.15753140607255        6.33523322013851        1.68366755151334
H           -9.48547480942374        6.92514128447490        2.68704660310783
H           -8.65167552972696        3.72847025768381        4.34452853205628
H           -9.89341901704307        4.64577724611322        3.48347396009677
H           -8.50824189330288        3.98437165707506        2.59865933615511
H           -9.51870578735035        6.60886833674518        5.11477967516133
H           -8.27959021205328        5.65938932925450        5.94493040816546
H           -7.88557968495442        7.26612993332289        5.31662099546969
C            0.18341676133751        3.87400073262606        7.59893731206617
C           -0.90822559021937        4.94831810408935        7.43536023325418
C           -0.39705224243889        2.72681239873733        8.43844427342594
C            1.39286270165958        4.46335250518504        8.34478748171879
H           -0.50300928071225        5.85384815302606        6.98492322791382
H           -1.70555109477064        4.57377239261729        6.79148545534533
H           -1.33085423120447        5.20768682061894        8.40637144845927
H            0.35219433852381        1.95624650738490        8.62252467132930
H           -0.72799134207111        3.11257848340579        9.40344372129707
H           -1.25482074625369        2.27552702617083        7.93891280557848
H            1.09267736102398        4.80758791415175        9.33493463210845
H            2.16738630535737        3.70413204297229        8.45817387532583
H            1.81243315374741        5.30695255745876        7.79725739779570
C           -3.54574568337399        6.00100206172479       -4.61056997432919
C           -2.88257309210165        6.57756905472797       -5.86947689030825
C           -3.93123657890382        4.53696453445074       -4.88739383210920
C           -4.81192854138647        6.82621723465630       -4.32047016091738
H           -2.56141966951066        7.60595894887925       -5.70272473395756
H           -2.02012012432934        5.98124973572725       -6.16729593205851
H           -3.59662399707970        6.57024846600873       -6.69401063345119
H           -4.43645454731118        4.09962192552086       -4.02644160345684
H           -4.59496898998930        4.47478608044508       -5.75044496458475
H           -3.03310746805758        3.95427788495850       -5.09401780716062
H           -5.44795621886815        6.85654472864848       -5.20583101890901
H           -5.38809526107882        6.39374428908343       -3.50331617883802
H           -4.53929698128244        7.84706601085219       -4.05160197445934
