843
 energy: -1594.470971602276 gnorm: 0.000042095498 xtb: 6.5.1 (579679a)
Au          32.68810578543636       38.91656384274297        9.39831574746995
Au          32.19427839366222       36.85543870595152       11.45349913087678
Au          33.14342003343691       41.00836236122740        7.36654234175534
Au          32.23416517047166       35.99753591414300        8.63235154420690
Au          34.79259171981343       41.01071219396475        9.92613703689589
Au          35.29819784025722       38.97764641982007        7.91683314195829
Au          30.15126338434193       38.00721602750153        8.09934637613824
Au          33.46553701081593       34.24383602689895       10.69199964870755
Au          32.68896169117883       38.11456053138019        6.49670246317789
Au          29.63366148147323       35.94768029995937       10.20990310961705
Au          30.01236467303018       38.83655859345019       10.90562174778029
Au          30.54719877138714       40.90356786565221        8.90731487674721
Au          34.82665040568380       36.19636485535241        7.02413624971508
Au          34.38152864611813       43.00889368417023       11.90793292043947
Au          30.68024596800128       40.06562425083934        6.06078254110212
Au          36.05475686885524       34.39668169608462        9.01586519263196
Au          37.48525563890036       36.95270601594402        8.33213892712705
Au          33.57978945013842       33.47578062845357        7.77217907876534
Au          30.89998310930088       33.39299531782402        9.50192263782776
Au          29.72710822849889       34.98156115238208        7.28693302733011
Au          32.18891470695043       35.22200943843435        5.75313559708592
Au          34.81273043199736       39.71712897622310        5.18021392921608
Au          35.94620700625594       41.89391651469973        7.53359213550419
Au          37.85203840018078       41.51860873516662        9.87116336099103
Au          35.92199258201780       44.17671527500238        9.64470052796797
Au          32.04909528858931       31.77077115935055       11.67172614627301
Au          36.88532319473249       37.69165109128495        5.57318895242270
Au          27.95072146985000       39.54446879891159        8.78052530472819
Au          38.01653688300853       39.73126674579567        7.62869118929489
Au          32.14928335936860       42.40480617162087        4.99112833241614
Au          37.04206837938305       43.63381520099799       13.04196325855531
Au          27.37947280729280       37.68371944035663       11.20697383957889
Au          34.04452952313124       37.03472697891610        4.32118126914366
Au          29.98432760661517       37.29441163184515        5.41079197735482
Au          37.34870523089506       41.18447133247645        4.82283267090480
Au          27.56051458945290       36.51120614869853        8.36082180369175
Au          27.72330479401706       34.81029817307225       12.07870450389642
Au          32.15189659081166       30.90720071176355        8.97158027413270
Au          34.77015391354531       34.17097286851586        4.99639941365282
Au          31.24947836460355       32.44685498117513        6.68563985040263
Au          29.01422471136832       32.23527878160704       11.95950660755119
Au          37.33098787073241       34.77581386026973        6.44168395618704
Au          28.14668567466058       33.53654910138687        9.40867672525579
Au          30.97514286384383       32.14328450502513       14.36328302456359
Au          26.26747374352124       40.60488973733003       11.36166553512714
Au          25.32494084706955       35.61478302091771       10.05015683692126
Au          31.37502656649591       29.00055140269588       11.11920092557703
Au          27.37068889518962       38.86372944808967        5.80386510499100
Au          37.06008062648679       35.42852138319405        3.47400863000927
Au          27.62256440122447       32.45329594453155       14.62801154591558
Au          29.80445231421850       33.94827532152241        4.40881053931570
Au          33.63488962951587       30.81707685204267        5.68445371221625
S           33.79499189896726       41.43998225979919        3.63202904724084
C           33.48970090276632       40.54910214277744        1.12049219572827
H           34.16480010448308       41.35591045183241        0.86050828887947
C           33.07356570897554       40.40082616485765        2.42045763518949
C           32.16245862486846       39.37821995283161        2.75022261459187
H           31.79306462817089       39.31144595000042        3.76547841886487
C           31.73800302360199       38.49091312627399        1.80262188389951
H           31.03610342033594       37.70846846375492        2.06723489570055
C           32.19872537868171       38.57729883819120        0.46901302680954
C           33.06452995614844       39.64745089826872        0.11646217368878
C           33.48898549221683       39.76605188700758       -1.22804277773923
H           34.12539043120086       40.59882228385873       -1.50690537896581
C           33.10005090417376       38.84412438967161       -2.16535748696355
H           33.43148305302008       38.93925768839611       -3.19320555098197
C           32.26553366834505       37.76923924647812       -1.80732853936004
H           31.97557479254893       37.04675955394157       -2.56167443077409
C           31.81644684646664       37.64295102889101       -0.51891778490678
H           31.16645811089578       36.82092941860526       -0.23827394100853
S           28.49571903356951       40.78632122403266        5.02570823766084
C           29.58574584092333       41.55899891087968        2.69580739410826
H           30.00490398119360       42.37389123175531        3.27605690455703
C           28.79089982839201       40.62026733980372        3.31114692742429
C           28.22774445900634       39.57853833702170        2.54679465473041
H           27.59244891758166       38.84931706035987        3.03568832889718
C           28.48226191604827       39.48436579300795        1.20642714368558
H           28.04682493110207       38.67719195354380        0.62797984749288
C           29.31718098104895       40.42155686512820        0.55371689727883
C           29.87578961255468       41.48282673709868        1.31765884163641
C           30.72291241505192       42.41816628522845        0.67702089821200
H           31.15295810589988       43.22255719439239        1.26428542355620
C           31.00102479808586       42.30247317483318       -0.65900329606308
H           31.65506277795280       43.01794097814793       -1.14460495268695
C           30.44798811264284       41.25153724216437       -1.41483965341335
H           30.68595139153009       41.17413278506793       -2.46965180544797
C           29.62363367294964       40.33066924754766       -0.82275430741489
H           29.20176995438341       39.51542296038136       -1.40079738773780
S           38.39140809007186       39.17208270818580        4.14837515839621
C           38.50852526442749       37.72557016803662        1.90233214556946
H           39.27282364425788       37.17229438081240        2.43181720005497
C           37.92467700768301       38.81913935077917        2.50094195089158
C           36.98562801050718       39.58469375352193        1.78313297016777
H           36.54883897034689       40.46129773797227        2.24654417241231
C           36.61699621973075       39.21643414067799        0.51863376472536
H           35.89285917634657       39.80787027992177       -0.02773276369301
C           37.13710179156593       38.04946785616075       -0.08875418990346
C           38.12298492064320       37.30284384875096        0.61132446741331
C           38.63601459093066       36.12174981139193        0.02507245162771
H           39.39202690086383       35.55660032361612        0.55983738701120
C           38.16472222327416       35.68617989844079       -1.18530632853260
H           38.54657461109353       34.77027748566616       -1.62221797787975
C           37.17951975885723       36.42029421333467       -1.87321989809909
H           36.81582267496250       36.05539328647934       -2.82707458086924
C           36.68378969315282       37.58271905659613       -1.34294423129605
H           35.92181553388530       38.14849559015715       -1.86859242874102
S           26.45606829708966       40.28254837092954       13.69493561981934
C           26.41085726410343       41.79423211236916       15.90509036166762
H           26.54610449920023       40.85541890057478       16.42832996182891
C           26.31472812721660       41.80793803361746       14.53209563944887
C           26.09042250513298       43.02420740637927       13.85764497540570
H           26.01500283282135       43.02239176965454       12.77706609713110
C           25.96516622608351       44.19319426686740       14.55644772378235
H           25.78849600400643       45.12423423690201       14.02879832716142
C           26.08017824376880       44.21415162393564       15.96688314189006
C           26.31365961283842       42.98934561296134       16.65064795468540
C           26.45158570245980       43.00261966452009       18.05908317217057
H           26.63136434943147       42.06596718740007       18.57580862497384
C           26.36467973904488       44.17945832328881       18.75409955582582
H           26.47841801639108       44.18679717989846       19.83228478874119
C           26.12199896372686       45.39030793018082       18.07858154835302
H           26.05070648283538       46.31056413403361       18.64728165448312
C           25.97886148219741       45.40815964161944       16.71561403676161
H           25.79404388209457       46.34051955183279       16.19307878970767
S           36.36143550147074       43.78093030189800       15.30721169445306
C           34.37198599590266       45.63288314838483       15.69273091779227
H           33.70419491001777       44.81533247934134       15.94088122635037
C           35.66928479058563       45.38382475404529       15.32359396199152
C           36.51477155688269       46.45665394859814       14.96530356575117
H           37.53024726190593       46.23915239869886       14.66091503521579
C           36.06258137621954       47.74583185461854       15.00517134297096
H           36.72090068903852       48.56216501516176       14.72869217000201
C           34.73033829873079       48.03348120650186       15.38667737710191
C           33.87213668971506       46.95338192508637       15.72914949400048
C           32.52842620613411       47.22767829814978       16.07249859960342
H           31.87683931449237       46.39966654562220       16.32700352179317
C           32.05766516752994       48.51374173183869       16.07508646761115
H           31.02309098428237       48.71522577299865       16.32988191736440
C           32.90896552588788       49.58408423739181       15.74382672814349
H           32.51907402879004       50.59564956288565       15.75139452033713
C           34.21785067119551       49.35013416638085       15.40952850572328
H           34.87464092800916       50.17201432639728       15.14523074242664
S           25.89169342094211       40.90541345774277        9.05111565814319
C           26.00701953013056       43.59660888729078        9.49055768828928
H           25.61735199831126       43.39930551648231       10.48247222795597
C           26.27692527505726       42.55361840681287        8.63664260933214
C           26.79347656404166       42.82270211282379        7.35016457402614
H           27.01359552820745       41.99680712203921        6.68537627533055
C           27.00000817067619       44.11127078087906        6.93480429907417
H           27.38202076977998       44.30436315650615        5.93864357613519
C           26.70087976346343       45.20482802000442        7.78415929448318
C           26.21073171696711       44.93622855381680        9.09162749892635
C           25.92599210393856       46.02249014898607        9.95236590749097
H           25.55258834339583       45.81681474131150       10.94993446605083
C           26.10935901806460       47.31239466305849        9.52801601338020
H           25.87200460070578       48.14300345681407       10.18309340329644
C           26.58610620852381       47.57775096370608        8.23119467875688
H           26.71755982944884       48.60569507047945        7.91285433166826
C           26.87061785695511       46.54627992930314        7.37462969199681
H           27.21156663422741       46.74771809762030        6.36499356764810
S           25.96372140628219       33.82281713545235       13.62459272765958
C           23.74934202475157       33.35101496417942       12.18252219740659
H           23.42166042682696       34.31927044504582       12.53959068202951
C           24.95848948224658       32.83330232539947       12.58930881214261
C           25.34263688760510       31.54908043131509       12.15227213094857
H           26.28320499033547       31.13392185390278       12.49279231994423
C           24.54962998666477       30.83543959483777       11.29820925123829
H           24.86052287581574       29.85304125883241       10.96471814755800
C           23.33023301103375       31.36730209944860       10.81773283820123
C           22.91564136977304       32.64191181003905       11.28962866387054
C           21.69374133043214       33.18156366378598       10.82397325906129
H           21.37277667917961       34.14747548385845       11.19866978558608
C           20.93614725588249       32.49890257305637        9.90829036108718
H           20.00327391512626       32.91883234499583        9.54912148985293
C           21.35860544839233       31.24563297953390        9.42504013775268
H           20.74906450629678       30.72506281174972        8.69503992917780
C           22.52582568632754       30.68653410859241        9.87662426351548
H           22.85241364704587       29.71933072831617        9.50956917420968
S           36.14843878824306       43.12746745215592        5.37322768053233
C           37.70901044357620       44.86053699805701        6.82116945980779
H           37.68032585441184       44.15179668546073        7.63803145447126
C           37.16131384198422       44.53152412968763        5.60885693838219
C           37.28192855578511       45.42379693923907        4.51970770985854
H           36.88580806645958       45.12864974988067        3.55573201196467
C           37.87974867820459       46.64316588750011        4.68999898896741
H           37.97048906047019       47.32600079353549        3.85230812665588
C           38.36075061219245       47.04747492703121        5.95925509975173
C           38.28800252342927       46.12804817699509        7.04147411741777
C           38.75291332481330       46.52537313407448        8.31756224726114
H           38.69764107810544       45.81983441588950        9.14069603943986
C           39.24003282877668       47.79018355353848        8.51198155467117
H           39.57090415398422       48.10153937611613        9.49568206843884
C           39.31530986292049       48.70083297181218        7.44203005398929
H           39.70978239967145       49.69512311649743        7.61837162106194
C           38.89454331706656       48.33578467867937        6.18990744113118
H           38.95219022474867       49.03498113264772        5.36261684775950
S           25.68010231006464       33.38828800419261        9.30957260792221
C           23.90249469438682       33.11160222095252        7.30776631928418
H           23.15275273717165       33.13966810017144        8.08950246520380
C           25.23313290659382       33.25122456492708        7.62649303280236
C           26.20423423657866       33.18739898291656        6.60756029243701
H           27.24899258810251       33.30070512037415        6.86886112919847
C           25.84280955736122       32.97490756932771        5.30668724043894
H           26.60277689889840       32.91937456072457        4.53500554449492
C           24.48265195673066       32.82047055855423        4.94955846080465
C           23.49656642572640       32.89808044347300        5.97138739456796
C           22.13349638274213       32.75495954076386        5.62020483915744
H           21.38296932619487       32.81736061624834        6.40108434133710
C           21.76988019634486       32.54398188198809        4.31655791876355
H           20.72386261437044       32.43771127250879        4.05189407871179
C           22.74719688615406       32.46180414033350        3.30655781931742
H           22.43832130152992       32.29474193722078        2.28091809481210
C           24.07545432932477       32.59571978785312        3.61504015904113
H           24.83187708313758       32.53895805805929        2.83969859066314
S           26.05188946066620       37.00520905996830        6.42395450356728
C           23.65242870049991       36.62456529372488        7.57233416357746
H           23.85302164835218       35.57058751541079        7.42334439660881
C           24.54609684924439       37.56665499912596        7.11362453208238
C           24.23311266749270       38.93436630688943        7.22307642752845
H           24.91589090050726       39.66625792256495        6.81103827225015
C           23.09894968531370       39.34028616265763        7.87044361978380
H           22.89028897267067       40.39854652276959        7.98167694466746
C           22.20278819736994       38.39771984944183        8.42608632134570
C           22.46741527322175       37.01334247917918        8.23651526558320
C           21.56165090719382       36.06441622569231        8.76561175047384
H           21.75780304905300       35.00940599961200        8.60775118895303
C           20.46586932529562       36.47098461600802        9.47972822048469
H           19.77784349824998       35.73971075053839        9.88890427669725
C           20.21993281349757       37.84045615247904        9.69177097707677
H           19.35330253649384       38.14111713462018       10.26953255983235
C           21.06445802066791       38.78458606343023        9.16887694836019
H           20.87384101409461       39.84126194732214        9.32293309761685
S           29.18092459089456       29.74226379454188       11.50876713826240
C           27.11856765623313       28.77286742953348       10.08787983255899
H           26.90580717291632       28.19352469794841       10.97768370124939
C           28.23102789611551       29.57693872237529       10.04538462108971
C           28.51649216800801       30.30826901426188        8.87520083331548
H           29.42765694474781       30.88919304513875        8.82826497420127
C           27.65968618434622       30.28253449465288        7.81134007970801
H           27.88336809709639       30.86026155084489        6.92221267297450
C           26.48058084063795       29.50450199600927        7.84284071442783
C           26.22322107620619       28.71003773422619        8.99284041874607
C           25.06462127979499       27.89823350218715        9.01622321603869
H           24.87442856962543       27.27941373034954        9.88654724043923
C           24.19381889809571       27.89940910196914        7.95693696751568
H           23.30669023999969       27.27665961808789        7.98069597619119
C           24.44012371378361       28.70423412539963        6.82858573122742
H           23.73423297846226       28.69626202742900        6.00589522258390
C           25.56344226852822       29.48649762527786        6.76872955058978
H           25.76203366281307       30.10484395038454        5.89990962420381
S           29.85112426640438       36.01108877919841        3.27284638489409
C           27.09793859446291       35.90302176314123        3.36620888300253
H           27.17513137548477       35.82105805697410        4.44363418702202
C           28.23007008988747       35.99757917834901        2.59793140451414
C           28.12885872145879       36.07674481722260        1.19280596279836
H           29.03772167129482       36.13011852712654        0.60522335768756
C           26.90048322780965       36.07765808403808        0.58843961454803
H           26.82650651053688       36.13651554101774       -0.49208390488675
C           25.71308510933144       36.00138491229008        1.35505027618656
C           25.81672610288691       35.91093075519303        2.77028651664852
C           24.63315119601487       35.83365102234173        3.54107487629426
H           24.71921490701514       35.76599899249300        4.61985497865987
C           23.40459272769458       35.84897147305993        2.93725458745738
H           22.50215796822837       35.78955745871123        3.53521425104562
C           23.30187294832054       35.93466131908045        1.53633023272557
H           22.32078393330994       35.94188785434245        1.07503430732022
C           24.42999342894145       36.00877541350720        0.76159659492072
H           24.35319492718848       36.07585087733878       -0.31838711279921
S           35.28667950016109       36.46733919691612        2.25968332060301
C           35.05637646625998       34.29564122122176        0.65965205212281
H           36.12518309811916       34.38704015888776        0.50318498587276
C           34.40260396224463       35.17789076606041        1.48686305627617
C           33.00729037511994       35.07007355247602        1.66419264328653
H           32.50372505627013       35.77362049752119        2.31587511487797
C           32.29610116693993       34.09297143560173        1.02626333293357
H           31.22344534486157       34.02044021603073        1.17169578644188
C           32.94324845713830       33.16204844910445        0.17941674381620
C           34.35071462446674       33.26497631207260        0.00096739269551
C           35.00902193581894       32.32286766389660       -0.82423893762767
H           36.08442159509106       32.39629706231963       -0.94671821403148
C           34.30028936171397       31.33279959119693       -1.45179984915257
H           34.80932809357254       30.61138010555567       -2.08099278024820
C           32.90506320361035       31.24185187823384       -1.28962338289547
H           32.36116578560880       30.45388213164400       -1.79798803484488
C           32.23993940223325       32.13470406622455       -0.48933752815376
H           31.16605007230368       32.06161354427139       -0.35503215620331
S           24.89616606748740       37.86072329437822       10.72387336646948
C           23.00685885325618       38.81070547352019       12.36004889337323
H           22.91731349647200       39.60378689736743       11.62644931277858
C           23.92321290109722       37.80375166754127       12.17527968958559
C           24.04363945760561       36.77560173235099       13.12880963005598
H           24.80438523327158       36.01783355579189       12.99489289157881
C           23.22542514370623       36.74422044582894       14.22466428318704
H           23.32207490351942       35.94420553224840       14.95038683000445
C           22.26932314494273       37.76336821497995       14.44334274000890
C           22.17069227862176       38.82221805638611       13.49873003305354
C           21.23695391024660       39.86028017823400       13.72822921768520
H           21.16414783771085       40.66760389777024       13.00733332858833
C           20.44288628875071       39.84764637045689       14.84428779751014
H           19.73233566905394       40.64806309644932       15.01773996828753
C           20.53919459045387       38.79828743166545       15.77748933973181
H           19.90231533736438       38.80737070385639       16.65480001686998
C           21.43056941042206       37.77634213527443       15.58090278494420
H           21.51177167156249       36.96840388060990       16.30009474240863
S           34.05896073088161       32.11128292451502        3.74934161906079
C           36.52594360081918       32.04294750782802        2.61297072694561
H           36.48305302753483       33.12528516533138        2.62671351510695
C           35.47604250511623       31.31546605561972        3.11152451961015
C           35.53546132228949       29.90426882452826        3.08024772593929
H           34.69041708445874       29.33474228902455        3.44778628892044
C           36.64142027624037       29.26501448695825        2.59266874128305
H           36.68174509058990       28.18116715826415        2.58575311787544
C           37.75010567892334       29.99671071615755        2.10349354999222
C           37.68128330261495       31.41698776845382        2.10349733362380
C           38.78321731969572       32.16009884723164        1.62012043123411
H           38.72578689066861       33.24337446149602        1.62675904007476
C           39.90708371223857       31.52252375116647        1.16760412653525
H           40.75215046636097       32.09650729880069        0.80436596450329
C           39.97764441124497       30.11671731816049        1.17165402499445
H           40.87670401632833       29.62984193080936        0.81114617578283
C           38.92260989642264       29.36917812229127        1.62665517953420
H           38.97582078339582       28.28575287687744        1.63048384567899
S           29.17741950144753       30.99042668110197       15.67210420895834
C           27.85082831697015       28.95303889299911       14.41008337759445
H           26.94411647420247       29.53715882743201       14.51787843029462
C           29.04645479572542       29.44194057046224       14.87956070669183
C           30.21292264069335       28.65603195614620       14.75333414229275
H           31.14009161539088       29.03418378290426       15.16266175018126
C           30.18646066119930       27.45133976299415       14.10878287603679
H           31.09565863160313       26.86904137515169       14.00525552995081
C           28.97764241966965       26.94936544713124       13.56752820539506
C           27.78645917404128       27.70516084694646       13.74966307434820
C           26.57252974372548       27.20415468189871       13.22116591377188
H           25.66132804109319       27.77332678917722       13.37081219560947
C           26.55028463972410       26.02262579222357       12.52500892948357
H           25.61807275747926       25.64762431614108       12.11752114252411
C           27.73405813858353       25.28772987097264       12.32795416413942
H           27.69722698477398       24.36051404862651       11.76726149287105
C           28.92175122344808       25.73755186367995       12.84423761322816
H           29.83558217459662       25.17081285193186       12.70027036546933
S           33.38396908295108       29.29584705562756        7.46828153687542
C           31.00292876133454       27.96418235472177        7.38429837209375
H           30.68318898766849       28.59638850948494        8.20483083515362
C           32.25192864566641       28.12244620225617        6.83942926770482
C           32.65677610094414       27.30334858264809        5.76205056703850
H           33.64760264240028       27.43826021214148        5.34525877122034
C           31.81057287313161       26.35661412596210        5.25533197762675
H           32.12578330973767       25.73368766708899        4.42532820801196
C           30.51281252202847       26.17824677881301        5.79272246300004
C           30.10777003421748       26.99514763145047        6.88308734423935
C           28.81592795572536       26.81962299219082        7.43138828209546
H           28.52242824078044       27.42756998838261        8.27869158198583
C           27.95316729496717       25.89671539887600        6.90291488515200
H           26.96112559356787       25.77430436518253        7.32333908158014
C           28.34856638252916       25.09578867964747        5.81536529383970
H           27.65413675293119       24.36834626491245        5.41070919948920
C           29.60317218714300       25.22642609159105        5.27735113322551
H           29.91478143847270       24.60086516229991        4.44777284041141
S           29.29848734091124       31.81610663550419        5.28438977906001
C           30.92314744614302       30.70913294029843        3.34905596440487
H           31.43033901607971       31.66339183616125        3.26515395537364
C           29.86814424186622       30.55744543426415        4.21213297313907
C           29.19036299389653       29.32151369973946        4.29332853734915
H           28.35040839720911       29.22645580013993        4.97104185513954
C           29.58956313579976       28.26347539576081        3.52467657706243
H           29.05901436444880       27.31944900553696        3.58179614229522
C           30.70963475128907       28.37067562523337        2.66653805884930
C           31.38200694370162       29.61962954330047        2.57536303889327
C           32.50942675434768       29.73079112941099        1.72922316745127
H           33.01532772801871       30.68691500507790        1.66294592592607
C           32.95918985682488       28.64955010661288        1.01887216606391
H           33.83077952402433       28.74242250525465        0.38052139728984
C           32.29533891410959       27.41218553812619        1.11100578447637
H           32.66502693074370       26.56683664213058        0.54171859516175
C           31.19114223613060       27.27654839488680        1.91189553276216
H           30.67524143863353       26.32475307116162        1.98264015568654
S           38.97395217413915       34.35753209506391        4.46575541048386
C           40.90518519128267       35.99276175601404        3.49811499204105
H           40.85655716072993       35.38712779831634        2.60024073543301
C           40.12304250694658       35.67672624264636        4.58450717713485
C           40.23883753916338       36.43352686823992        5.76601485087843
H           39.66989982194858       36.13765678248478        6.63621967005152
C           41.05151676755442       37.52826912574909        5.82139832929404