224
 energy: -437.141001731454 gnorm: 0.000047165890 xtb: 6.5.1 (579679a)
Au           4.60869596580580        4.78099388440059        5.63775218485405
Au           6.55858917182290        2.92042585584237        5.14716418904111
Au           5.55656711501380        4.77163086283013        3.13792595562502
Au           3.71784043112957        6.85580447348630        4.13493756873069
Au           2.11450631535065        5.46851810685626        6.17797720887551
Au           6.31562576132896        4.30332491923102        7.71144410590066
Au           2.75708094682134        4.31788516681887        3.62705638371992
Au           3.60724749294388        3.50353588690839        7.84854589225251
Au           4.20411563144967        6.15252559306828        8.04501627350054
Au           7.34049289912950        5.46897202418193        5.25691585287621
P            6.15059817123104        0.56324229505211        4.90174165449887
P            6.40683480816175        4.70171232545871        0.92112720347026
P            3.57338186525873        9.07186670406799        3.35477026133499
P           -0.16799913352394        6.04735699005487        6.34773287978847
P            8.35337049089231        3.67578610316237        8.80298749306279
C            7.43363679525578       -0.32679358720593        3.97174011536295
C            7.86599997684988        0.24811407142679        2.77189831613795
C            8.89031973596141       -0.33054425815577        2.04228224447235
C            9.51150652145542       -1.48262112786248        2.50770854442808
C            9.09884913055508       -2.05438861903695        3.70318362194999
C            8.06687602762127       -1.48137678893679        4.43234003341254
C            4.61791910184937        0.26572871292937        3.96596491025414
C            4.52655231152449       -0.56387497133203        2.84805421596717
C            3.30691127322923       -0.74296444889733        2.20869521758769
C            2.16922272638295       -0.09885035962761        2.67518948761403
C            2.25067734541594        0.73088791090195        3.78581385506725
C            3.46701114893499        0.91738437339448        4.42000300531416
C            5.87809601101069       -0.41661825255470        6.41083293346655
C            5.26108109780765       -1.67135817148022        6.38392329380009
C            5.07629698097348       -2.38461999103418        7.55760675819145
C            5.50572666344243       -1.86020487011428        8.77007238797387
C            6.10810000758293       -0.61091470734203        8.80880022643574
C            6.28408130243806        0.10892894941398        7.63781487737379
C            6.57646321964115        6.27955643723295        0.03350828326037
C            7.81646818886111        6.87242551323174       -0.21276774848894
C            7.89267737603236        8.11624941864428       -0.82166294345890
C            6.73443968081827        8.78399235721702       -1.19420262165793
C            5.49615774957566        8.20615077107287       -0.94752111327981
C            5.41370598258267        6.97051494929040       -0.32670399399753
C            5.45397792210836        3.61106510133742       -0.17344944409534
C            4.89429015538391        2.46439957043103        0.39799179644988
C            4.09780168417827        1.61879318128671       -0.35486449603973
C            3.84074269010089        1.91025155595853       -1.68816979388493
C            4.39337124389943        3.04438350163814       -2.26613899218895
C            5.19720606236760        3.89015979398688       -1.51674567709188
C            8.08736000025480        4.00180628512404        0.92207360585328
C            8.50080155475264        3.01251364460646        0.02872127148135
C            9.78985755290818        2.50296724613147        0.09384515234491
C           10.67973962251326        2.97008642879749        1.05203091134007
C           10.27828684353176        3.95383981410926        1.94644796219524
C            8.99135764300005        4.46239042543594        1.88384389451994
C            5.15363854077425        9.93579113132411        3.13551626069386
C            5.41499884813861       11.22938038776244        3.58637376946589
C            6.65965506191546       11.80329688528432        3.37262954998706
C            7.65085273413164       11.09838135307849        2.70569246436444
C            7.40372936358139        9.80422495995738        2.26479359241988
C            6.16737900515235        9.22349588985568        2.48601352640262
C            2.51806121641790       10.17308125119424        4.34714306824719
C            2.16834079824450        9.76415213257554        5.63551750162492
C            1.39302682759166       10.57273238203572        6.45279153854823
C            0.93843832098911       11.79706481251745        5.98454358515641
C            1.25832962513737       12.20465844305288        4.69610438233862
C            2.04234044929750       11.40177181056016        3.88213878494720
C            2.85028900040968        9.11228390258612        1.68276017036154
C            2.09068472025363        8.01920203102099        1.26248259695143
C            1.53542624749024        7.98476469321956       -0.00659056431330
C            1.72765011014686        9.05052552694776       -0.87481862336144
C            2.48596499057173       10.14258948687466       -0.47135823817360
C            3.05087636425572       10.17220996653977        0.79522494240853
C           -0.73275759812633        6.61436704257407        4.71267915406126
C           -0.39847470695131        7.90694688920548        4.29759551233300
C           -0.67140642046401        8.32992005318384        3.00731621504817
C           -1.27416009465886        7.46291676660444        2.10451392986684
C           -1.60719219429972        6.17622282880560        2.50400702176789
C           -1.33716767861165        5.75194189634904        3.79646558590359
C           -1.27928849228942        4.68409290012109        6.78749262072846
C           -1.02121560215856        3.43576428285149        6.21314465491217
C           -1.80323299772192        2.33809776267407        6.53138964912364
C           -2.85018607869260        2.47341574535254        7.43302682925850
C           -3.11178206417377        3.70818612988142        8.01230660858963
C           -2.33158134176912        4.81015012103457        7.69602976502741
C           -0.54360086948382        7.41824208577142        7.47723005874345
C           -1.64884865655061        8.25773060534741        7.30979866476315
C           -1.87074585251486        9.30442139541068        8.19119829739035
C           -0.99894044405108        9.52598134186196        9.24977482162762
C            0.09900027203073        8.69468908288831        9.42917007089514
C            0.32419445882200        7.64982452237423        8.54669232648127
C            9.24112402947013        2.56481789185847        7.66488564161581
C            9.62655039876931        3.06992893007622        6.41742286056779
C           10.13827372525688        2.23448158356321        5.43762392011525
C           10.27954090719690        0.87555163009189        5.68854328717526
C            9.91469949355642        0.36333131296402        6.92530188247286
C            9.39598628165853        1.19855576914806        7.90491598072455
C            8.22401289750618        2.73386751518962       10.35172382066385
C            9.33446081064512        2.42209911527604       11.14119667321523
C            9.17637106395877        1.68239019361640       12.30244635213354
C            7.91487807186001        1.24662788398935       12.68952320399222
C            6.80515416931925        1.55920464051603       11.91693086322035
C            6.96005805159124        2.30320342455444       10.75740390472509
C            9.52886392614417        5.02102307079978        9.13602118218787
C            9.00798757913789        6.21561282021373        9.64089618810757
C            9.83209213461703        7.30656168110380        9.86177962751361
C           11.18934891397098        7.21705877288969        9.58304154273984
C           11.71894167752060        6.03186356569496        9.09039323379158
C           10.89654995799682        4.93817916317174        8.86555632799432
C            1.49801168876006        3.80796632983903        1.96714197059005
C            1.88449327701430        4.30350827128951        0.73724579513909
C            1.13860440475956        4.15408146502714       -0.42306426832121
C           -0.07172841607100        3.47525169871917       -0.36103996773367
C           -0.50757268048849        2.97441732242991        0.85968641515533
C            0.28059811034304        3.15548029148339        1.99082792819536
F            3.03988250470961        4.98501037735073        0.65023945455270
F            1.56592870990192        4.66129456304816       -1.58256915482528
F           -0.81092618609568        3.31862078050546       -1.45580602632181
F           -1.67541367643088        2.33692221705134        0.93628854847214
F           -0.18434247731716        2.68233783935636        3.15333284491330
C            2.73871336758906        1.58788075384521        8.30540267181513
C            1.74808614592121        1.06728916000859        7.49697317280153
C            1.18789730614493       -0.19032287437399        7.67267711995325
C            1.64365931825675       -0.98799087197666        8.71473269811110
C            2.63831663602395       -0.50323589191456        9.55483419465070
C            3.15723677826441        0.76651389683540        9.33431519888822
F            1.30598074802968        1.80807935979248        6.46939451841054
F            0.23533468060620       -0.63579225869415        6.85098084698855
F            1.14416721400978       -2.20746819952658        8.89932153349265
F            3.10026710204629       -1.26809381668785       10.54789821762242
F            4.12682985757960        1.19359095152311       10.15612908582404
C            4.23415532076641        8.27237688604317        8.34702780852815
C            4.73676259183588        9.09025994764441        7.35243620157947
C            4.80204249218523       10.47290834671299        7.45885016651644
C            4.32708071893636       11.08722479317093        8.61006211331476
C            3.79675236842431       10.30256612855838        9.62666083832694
C            3.77036567938424        8.92108217782860        9.47554881245353
F            5.13594180006837        8.54523533786602        6.18728678868434
F            5.27616304488390       11.21290221222442        6.45267895376417
F            4.34482761514563       12.41243268422606        8.72052977627937
F            3.29624837838182       10.87977283360861       10.71934542982587
F            3.22673478280960        8.19629048380703       10.45898099832939
C            8.24254114341073        7.37722511276159        5.53532412228474
C            8.06085772494808        8.04874275968674        6.72938343080336
C            8.57000634366035        9.31541242997086        6.98098572866981
C            9.29994520437171        9.95798194864663        5.98889929070224
C            9.50531587495997        9.31602415328978        4.77399075453903
C            8.97112560379101        8.04978279673975        4.57429987561718
F            7.36804834286361        7.45295602789990        7.70975626023871
F            8.37327097012926        9.90653338973762        8.16104449798169
F            9.80329047518435       11.17074056552483        6.19903490724368
F           10.20573278318712        9.92255246953621        3.81141116609183
F            9.17805397042136        7.46114555036263        3.38629025285363
H            8.86272878910041        8.56280096345502       -1.00778889022946
H            4.44225513517255        6.53656299423161       -0.12266222089436
H            5.07684552616105        2.24445416248046        1.44533039244338
H            3.66436202438695        0.73795859277042        0.10487903193718
H            5.35492903907813       -2.41805024755588        9.68657708769182
H            4.19109590712097        3.27796942844291       -3.30507871160135
H            7.81353968266470        2.64198797844521       -0.72351169896813
H           10.31924719622580       -1.93070608754253        1.94061081961135
H            3.24559127655702       -1.40382274656678        1.35121745993603
H           10.10331140246166        1.74467891128251       -0.61497174311635
H           11.68556364804598        2.56889047040922        1.10021792050444
H            8.68298007445738        5.22881644662703        2.58591778981524
H            7.39499226976762        1.15862332708082        2.41412607483810
H            3.20392769642160        1.25687435322834       -2.27326821749773
H            8.62284762783305       11.54831152892795        2.54219444385058
H           10.97076966161587        4.33109696516623        2.69017644909371
H            6.79558563796763        9.75522268836723       -1.67158801781425
H            5.61811277562589        4.77751099379309       -1.97529355667915
H            1.21831597476851       -0.24526195119118        2.17645562509666
H            9.58336315190300       -2.95107955953942        4.07268855795463
H            4.59188008243539       -3.35380635317328        7.52625683012949
H            5.97841216713672        8.20739942441590        2.15424473410228
H            9.21213274641525        0.12418408708125        1.11241450377314
H            1.14590021319474       10.24464867497437        7.45609443372794
H            3.52811076291296        1.56363088926812        5.28872626652761
H            6.85452220858991       12.80662466281882        3.73340344792233
H            7.75464751837258       -1.93362332320627        5.36670648346560
H            2.51421417780429        8.80439968465919        6.00189426072434
H            8.18046430716757        9.24189616252662        1.75984148893314
H            6.73862070993076        1.09309406197201        7.67010699513144
H            6.42806914704825       -0.18841068763591        9.75405195643427
H            0.33207649322851       12.43086613134893        6.62112753503328
H            0.89787127479428       13.15647820380801        4.32280821187839
H            4.91934698628837       -2.08365839718342        5.44088674626335
H            4.65095506802082       11.78649791735464        4.11479013148662
H            1.36610449136005        1.22575871730940        4.16430630521737
H            4.58859081813887        8.72463427022611       -1.23417093069007
H            5.40730723412741       -1.07667524476023        2.47860365886765
H            8.72927462789874        6.36145120747640        0.06993307445007
H           10.67161086546318        0.21840983032454        4.92080450295042
H           11.31768008868680        4.02034509802248        8.47090370129225
H            1.18755454349616        7.00798228551750        8.68351476306038
H            1.94110429326094        7.18398958475913        1.93758908404900
H           11.83463344967281        8.07282479776410        9.74484149907286
H            9.10982236668618        0.78261229059722        8.86410493036295
H           -1.58337629058337        1.37514629705080        6.08545143102340
H            0.95872958402791        7.12218266411622       -0.31998796122549
H           -3.45938037259409        1.61473989596252        7.69103504629540
H           -1.17452622501364       10.34817189809454        9.93375339933304
H           12.77865374234699        5.95876760886836        8.87279063249373
H            0.78323909501375        8.86045738244224       10.25289362694766
H           10.02462445798053       -0.69612313295479        7.12793221518504
H           -2.72857867387722        9.95212266167860        8.04948703111999
H           10.04274020653847        1.44393049179794       12.90921388610383
H           -0.40512157047898        9.33636810934473        2.70384675623163
H           -1.48057265310759        7.79016983592457        1.09197612732575
H            7.79854368855692        0.66647058022399       13.59778683812432
H            5.81674515690122        1.22881871997014       12.21380949836393
H           -1.59849028079615        4.74230668597596        4.09065383988303
H           -3.92630401015456        3.81485140376195        8.72003773579251
H           -2.33106086108871        8.09383379769013        6.48314860908720
H           -2.07674937929680        5.49445153216804        1.80399683725150
H            2.28095090017795       11.73083751133353        2.87730499290914
H           -2.53923265407014        5.76871550693752        8.15829381728055
H            2.64437599445577       10.97387686438079       -1.14898758021187
H            9.41133689311387        8.23251836933382       10.23603508050225
H            6.09226536198785        2.55461989493222       10.15865487277140
H           10.32083059510567        2.76189414741697       10.84433665996325
H            7.94540997466276        6.29255104808197        9.84196540336981
H            3.66447991314934       11.01626621480846        1.08967340311021
H            9.53096880255170        4.13178667598665        6.21930578824084
H           -0.19253500781860        3.32351145057276        5.52433492196422
H           10.42303731430197        2.64401042953414        4.47504191784419
H            1.29543000064625        9.02696115568612       -1.86840119931744
H            0.08054929715978        8.58549919309354        4.99420539517249
