289
 energy: -384.393250003298 gnorm: 0.000031579847 xtb: 6.5.1 (579679a)
Au           5.80014477921229        4.43604773124297       17.07507809374239
Au           9.62903107474438        5.07657623834035       18.40966338258696
Au           6.38277051201345        4.80638097250876       21.08795457794941
Au           8.08838213157209        6.11996032163862       16.25244614503836
Au           4.44722880946390        5.82256799753848       19.18902942647675
Au           8.79362842854217        6.38143219911003       20.88356802622669
Au           9.20482548935712        7.78293457344619       18.35015193925339
Au           6.15689364013573        7.53941533408821       20.90257570060958
Au           5.45876514348827        7.15307304218744       16.84960952643385
Au           7.10545492873935        6.10299516742616       18.78638319231929
Cl           8.41861735211782        5.84333308814478       13.87686453806725
Cl           2.17370321687314        5.67121487390961       19.91388652110393
Cl          10.61203666436539        6.40638761628873       22.46982004036097
P            5.14112522529395        2.83304789853186       15.46724145016425
C            4.45442543621949        1.23796797818290       16.14363168763721
C            3.67349082436743        0.37233311540406       15.14068004959317
C            3.40209432202761       -0.99856339998587       15.76227398541166
C            4.70818686092557       -1.78100845047779       15.97124003532889
C            5.91198021551891       -0.84786956893307       16.15880572346138
C            5.51344355339270        0.41923659773762       16.91317741765996
C            6.46171360884002        2.61374866797120       14.18173346421991
C            7.80301870166684        2.24285870973018       14.83354197972304
C            8.93256419491887        2.32196830434959       13.80494319866641
C            8.64386834601833        1.41941187511097       12.60543026504942
C            7.29562677651571        1.77587006356057       11.97708927825211
C            6.17512821692761        1.66023697097381       13.01464062306904
C            3.71019151097490        3.59543803345318       14.64264447722693
C            2.53320378490343        3.73673583500766       15.39000849092582
C            1.43056158971387        4.38909853437158       14.86578047708046
C            1.48443203890649        4.92850683015331       13.58647807962109
C            2.65074456680866        4.81551011201741       12.84459220251569
C            3.75843425663546        4.16508604868708       13.36859737873990
P           11.34082309244009        3.47235122366653       18.27128323543305
C           10.81345896549920        1.75935109199114       18.77587324830573
C           10.06874177750963        1.08097564957096       17.61601260347071
C            9.56942319571597       -0.30634467616082       18.02453053022600
C            8.66011698992108       -0.22057837193607       19.25069829873781
C            9.39220048921590        0.46110040504944       20.40573698945785
C            9.87318310707093        1.85113002957906       19.98810981451193
C           12.00337551819059        3.31349481961707       16.58678461211250
C           13.01576173188713        2.40089453748379       16.26882183171342
C           13.49977698887861        2.31677030965985       14.97306522901227
C           12.98596439764534        3.13757237529314       13.97683268138562
C           11.98371082713465        4.04814025672605       14.27997293409019
C           11.49897328057334        4.13307583733890       15.57554724416702
C           12.83872977789693        3.95731659175520       19.25704384428090
C           12.62817702671454        3.80859694593196       20.76929906304889
C           13.84347439965576        4.33022862082734       21.53996448300997
C           14.11785944666562        5.79035997782387       21.18595221824551
C           14.35901541611112        5.93536425640907       19.68362573113079
C           13.15238719073902        5.42024887270703       18.89848408890254
P            5.98308680955093        3.35819122592049       22.91952251604276
C            5.88334150403020        1.57975214294648       22.38827640270721
C            4.69307836986642        1.34819053666468       21.44780572920456
C            4.77549325385356       -0.05206977711971       20.83576476088612
C            4.83673822418827       -1.12193961534996       21.92758411613791
C            6.01987472483640       -0.87287656643087       22.86521240812853
C            5.92660204389105        0.51955227782403       23.49580128701426
C            4.49157951236534        3.91165601835361       23.88654883417559
C            3.49934178792221        4.60178542483859       22.93665716653726
C            2.34700405460086        5.23837787132798       23.71148102183515
C            1.63194678137652        4.20151525276345       24.57654493136802
C            2.62459236116407        3.51933303356896       25.51862166662247
C            3.75586010678784        2.85731524775888       24.72559018699691
C            7.39859631881412        3.41630399190409       24.05741576546993
C            8.66853228508651        3.51796538743020       23.47962674024728
C            9.80109125045942        3.65702055514976       24.26271639593484
C            9.68408911931190        3.69557064349538       25.64546122735268
C            8.43233359022166        3.58527682971479       26.23460643550468
C            7.29570431365759        3.44890666779772       25.45053349345194
P           10.70881135828633        9.59461876295743       18.12317592790184
C           10.06776753875087       11.32024222216704       18.39487366299155
C           11.13734039798658       12.41065317168482       18.24892493532954
C           10.52360752066775       13.79070144291995       18.49913801920462
C            9.89297989908153       13.85775123678736       19.89065374733208
C            8.82374888348575       12.77585289557212       20.04246448906672
C            9.41159370398307       11.38766792335166       19.78315043216733
C           11.40140755715209        9.50511414126344       16.40823800138297
C           12.06260350388856        8.12842794767680       16.23321147115602
C           12.55533646638838        7.92563058642677       14.79997544066874
C           11.40882152404484        8.09420121292581       13.80300935005715
C           10.76134208055641        9.46970366108675       13.96214062200266
C           10.26058827240996        9.67442304878404       15.39311673843275
C           12.10423247002214        9.49394560232855       19.28008705390985
C           11.82967090977126        9.04206989247475       20.57407643368894
C           12.82377701878955        8.98856434551432       21.53691273724882
C           14.11803341115696        9.37328964399860       21.21441702805909
C           14.40876495089689        9.81125934462337       19.92874809890350
C           13.41113344398765        9.88036361237796       18.96739262205863
P            5.37849987591154        9.18700316434311       22.39218714760135
C            5.50684869137377       10.95469396917650       21.83072038395632
C            4.69964432340013       11.09818950749873       20.53070797211976
C            4.79791389091097       12.52037256363342       19.97623975293284
C            4.34669245076307       13.54285214975573       21.01967140525008
C            5.16715063505878       13.39842743422580       22.30217675904434
C            5.04196419335334       11.98217570837411       22.87018153728022
C            3.63519848846510        8.98824596716273       22.85372264100063
C            2.76917195239453        8.45619276784970       21.89436536231075
C            1.42333025908842        8.27892003479901       22.16997636146290
C            0.92139268843842        8.63224545705811       23.41499263683820
C            1.77071403406501        9.16060589057395       24.37861288111874
C            3.11806391499809        9.34046177905604       24.10463287823261
C            6.37883668900782        8.97745922486743       23.93661765283854
C            6.14841937715484        7.54617673482126       24.44875496668950
C            7.04320792064654        7.22997588624757       25.64714404820803
C            8.51486972569685        7.42919069122518       25.28711620737647
C            8.75723635842360        8.86000371438007       24.80706815899196
C            7.86430581492640        9.19627501813014       23.61145453665991
P            4.36404846180118        8.73811538142333       15.49504117010754
C            5.23849832469956       10.37499121965434       15.32492835289950
C            4.33025618056463       11.51686229733736       14.84891009665554
C            5.15344908574946       12.78951759642427       14.63568340200684
C            5.87207496280863       13.18493817382834       15.92594023243928
C            6.77317931852816       12.04733361127710       16.40765820227978
C            5.97041472844502       10.76208903382869       16.61658459747060
C            2.64345082138167        9.01127707628661       16.12360396523834
C            1.89158008618294        7.67257262838129       16.04755787170838
C            0.47248400907409        7.81680929394464       16.59922886447663
C            0.50191031063563        8.31126770127912       18.04516129611822
C            1.25959977398926        9.63509255490451       18.14431708693041
C            2.67551950938088        9.50433837594919       17.57786398026262
C            4.21582211598818        8.21612293556126       13.76156993847877
C            5.25003702801842        7.43340153449070       13.23975854503563
C            5.24478954806241        7.04266763765922       11.91117268206693
C            4.19692493473516        7.42199704261387       11.08275218276714
C            3.15944633868844        8.19388021569516       11.59051773327541
C            3.16630536199248        8.59308933831412       12.91861375067770
H            5.67034090447912       -0.11953397478111       20.20710752056824
H            3.90258453038099       -0.22111859115545       20.19883816916388
H            6.58935762293790        3.62731399730105       13.76981950251559
H            3.10558521316181        3.88422482293431       22.21136837076405
H            4.01831516092141        5.38494558673972       22.37628775758489
H            2.73268270901874       -1.56636593238157       15.11099290053740
H            2.89164518366157       -0.85921557359326       16.72070907081637
H            2.48199704151461        3.33997925319540       16.39793069601191
H            4.89544813514016       -2.42790013228822       15.10951225470617
H            4.60192401073322       -2.42432060895985       16.84952241735689
H            7.75692718114195        1.23112971407888       15.24655371291807
H            8.01438426127969        2.93369447605004       15.65706173610209
H            8.63237020945935        0.37177795274175       12.92609589832251
H            9.43786820357570        1.53512444284965       11.86259017603490
H            0.52858078040172        4.48119741257887       15.45963453411686
H            9.87102674798849        2.02027273786384       14.27961285914966
H            9.04095420981803        3.35766928406690       13.46998253831465
H           12.27986402000974        6.04330550953179       19.12918125474751
H           13.34435953904828        5.50506513022051       17.82433084958796
H           11.68635051677124        1.15223772674895       19.04610170321535
H           13.42440379914121        1.75494310631726       17.03827565519503
H           10.71249403351825        4.84246719913310       15.80400465425557
H           13.69100308247924        3.33262878219484       18.95760902735648
H           14.71962353674993        3.71737952113960       21.30259155065928
H           13.64734571023399        4.24025985526334       22.61187486342041
H           14.99165428391617        6.14918936290878       21.73663871280564
H           13.25687760006848        6.39896302935158       21.47959632931076
H           13.36687244680506        3.06492521795739       12.96487907139487
H           11.57023284989215        4.68942702896996       13.51050157726457
H           15.25217775825944        5.37242055105822       19.39304006482013
H           14.52676031072844        6.98683837246190       19.43161785331791
H           10.24989733609987       -0.14589622726722       20.71246113726493
H            8.72354220797274        0.55507843900903       21.26657089992253
H            0.62240318924230        5.43852205837589       13.17282730395581
H            6.79830980938484        1.45367274880750       21.78881509134910
H            4.70124086578824        2.09884306027256       20.65067671069481
H            3.75250197997718        1.45331938582811       21.99592541586575
H            4.93465882142025       -2.10888293554247       21.46706797161577
H            3.90536876760876       -1.10982680018027       22.50311860460056
H            5.09939560605024        0.13521615265655       17.88594283049148
H            6.39987365209843        1.02962862683512       17.11069620802471
H            7.08470202862943        1.10047669588000       11.14328460127519
H            7.32772128697548        2.79762679453464       11.58555470781974
H            5.21457631559834        1.89708684397419       12.55060531677728
H            6.13161914261712        0.62938830853362       13.37721791266352
H            6.32983240454325       -0.57835377003934       15.18422443856820
H            6.69543262328489       -1.36853924670728       16.71659226490011
H           14.28269427619410        1.60444964506170       14.73920127711908
H            6.95831313704522       -0.95965001656361       22.30674274869684
H            6.02910540600887       -1.62717534137819       23.65677901957914
H           10.42631377464691       -0.95022897568130       18.24724395744532
H            9.02323461673971       -0.75097882551274       17.18758630598974
H            5.02826743380289        0.57256128259580       24.11463479461997
H            6.79231254879373        0.69336256184815       24.14095072627951
H            2.70567139372133        5.24342383917994       11.85013853613089
H            4.87254068495892        4.68277232628508       24.57247864618798
H            1.64569458727775        5.67794928578213       22.99717707415873
H            2.73508106298398        6.04429668896592       24.34475364285645
H            3.72720394734354        1.58308474724652       16.89179942651877
H            4.22426364568761        0.24445838838019       14.20708724720730
H            2.72924870406807        0.86853386695596       14.90171076788472
H            8.34562727730181       -1.22401333253327       19.55023300085258
H            7.76076514258872        0.35410423063204       19.00215516365291
H            9.00969983051639        2.47553308724612       19.72724513638508
H           10.37707262320235        2.32691067275182       20.83164360005426
H           12.47655675270308        2.75511399884705       21.01907140241150
H           11.73932174054304        4.36812084150975       21.07740113611088
H            4.66264770629245        4.11360679676541       12.77517995807797
H           10.72811134654480        0.98723273134399       16.74923137066491
H            9.21740787520491        1.70563993319981       17.32277570441890
H            9.80296909029744        8.97409773320882       24.50857790985592
H            8.55668291708187        9.56414865822169       25.62133814563033
H            3.55068979169721       11.71044119064042       15.59187462741395
H            3.84218530731814       11.23447081458915       13.91175442787774
H            6.07059651653585        7.12772340377281       13.87829028459664
H            6.06095029826682        6.44132015392060       11.52795318013595
H            4.18778028618105        7.11913525862673       10.04223634426193
H            9.28985108807232       11.49512827790511       17.64140237058555
H            1.16032650465945        3.45051066868156       23.93453711578192
H            0.84563838949065        4.68852076292323       25.15975501885980
H            9.76219354619282       13.99550058039072       17.73884912416063
H           11.30341208271984       14.55178284949959       18.40890400218257
H            3.28572208786417       13.39200677651709       21.24444000160024
H            4.46574383858809       14.55289396065132       20.61823062071057
H            4.17290297592195       12.60129354468432       19.08178952296996
H            5.83210799076714       12.72682813689814       19.68186872255517
H           10.56617433426639        3.81873828606450       26.26262152687786
H            3.15786024377471        8.16150977556712       20.92662387891875
H            3.76753939910864        9.75259824110131       24.86826539578426
H           15.41895366333217       10.10891567793617       19.67187505861526
H            6.87273892246643        6.19347744498547       25.95408527592787
H            6.77280189759486        7.87949239101039       26.48616656860057
H            8.80145390362987        6.72631815705114       24.49870020129639
H            9.13854266840235        7.22467460389722       26.16149532077403
H           11.56516946226499       12.37952950413466       17.24303056658591
H           11.94634110941664       12.23481036007774       18.96480478770416
H           10.15461699529338       11.16041822462652       20.55443196223345
H            8.61930166647003       10.63410141193718       19.85188366153570
H            4.49006700714766       13.59856255529777       14.31818437135002
H            5.88737492898852       12.62218464878575       13.84072105218988
H            5.13418194575893       13.41898183120237       16.70104138703106
H            6.47486886182166       14.08080215725747       15.75395807919452
H            8.01005976543358       12.96521407875682       19.33409611842572
H            8.40260366314175       12.80549223921286       21.05196828718437
H            2.43419140047112        6.91710869173388       16.62747569074268
H            1.85018685524068        7.32475307255420       15.01125930665005
H           -0.02907763076867        6.84616176959463       16.55130482646068
H           -0.09043183638644        8.51892765517866       15.97481541112896
H            4.44666494969846        2.37180206202700       25.41916816231971
H            3.33291396293703        2.08956283829792       24.07166200941282
H            9.82202863644154       10.67258806554797       15.48706674571965
H            9.47155383193215        8.94425498252274       15.60960216491345
H            6.56372363086335       11.14406080693198       21.60013072329782
H            3.64897173306391       10.85499436678190       20.72070589177965
H            5.07582110291813       10.38667079211044       19.78775787078810
H            0.77597748753214        7.85099624989618       21.41394780782626
H           12.58225426456210        8.63716689051497       22.53293449248769
H            5.64930882021983       11.89707059770660       23.77548207082587
H            3.99987931338801       11.78771925726302       23.14282100122845
H            6.00409899212214       10.20827341084138       14.55325827104751
H            6.64397004456208        9.95074012737060       16.91364009732007
H            5.25276239163422       10.90884152634015       17.42848817601315
H           10.65776666107044        7.31529448434671       13.96752216255500
H           11.78948629741913        7.98387617622831       12.78413235275863
H            9.91736789786083        9.56294469019239       13.27311651685647
H           11.48669404835180       10.25253994486127       13.71635746332486
H            2.10959534960469        9.75082948222069       15.51453967145113
H           11.33387294143972        7.34617770698925       16.47798926940698
H           12.89980827046524        8.02609537137669       16.92962407942506
H           12.98147807633839        6.92196863729144       14.70976033071343
H           13.34742546387654        8.64969905155619       14.58215170093105
H            8.76332732579109        3.50762996051082       22.39875524036544
H           10.77040588578369        3.76200795203185       23.79040362272247
H           12.15081487425207       10.28524142757785       16.22854116940460
H            6.32878053354807        3.37093239356580       25.93204685459866
H            9.44279011116615       14.84222832376265       20.04439685337955
H           10.66710692095017       13.71772546391803       20.65218414095631
H           10.82726386833087        8.71751604642513       20.82723089938286
H           14.90183464555537        9.32706070162175       21.96133575624467
H            6.07964630007487        9.68678305524466       24.71747256252725
H            8.03013730540149       10.23508697757127       23.31053532270887
H            8.14640660969956        8.55904297838932       22.76523884757720
H            7.24629915542623       12.33284516462776       17.35146666644502
H            7.56528757580455       11.86675661926314       15.67311705819039
H            1.32427201572710        9.94778555256945       19.19093827360508
H            0.72172944965529       10.41381876033285       17.59295056260133
H           13.65393571217926       10.23707002431289       17.97326327124853
H            0.98762688448878        7.56123653422385       18.67641985053203
H           -0.52035230524486        8.44734177829002       18.40827001869499
H            3.17239844004266       10.47688100438495       17.63315802589188
H            3.25215802448492        8.79950222560790       18.18846553363234
H           -0.12940206703316        8.48978906547303       23.63838251620290
H            1.38290544659761        9.43398457501465       25.35328493438229
H            2.11111586324962        2.75703723297969       26.11114249406590
H            3.04646337401316        4.25666715957157       26.20994730094003
H            4.81698238560052       14.11697822098402       23.04819948556176
H            6.22030282572261       13.61568027901209       22.09304101571307
H            8.33473759625422        3.61352843458315       27.31384526213219
H            6.36796567185276        6.83646020056748       23.64127592460115
H            5.09787992528207        7.41452611544564       24.72453984526896
H            2.35227827795668        9.20159768351242       13.29504197278810
H            2.33941982652605        8.49198300077220       10.94727097742730
