676
 energy: -1302.446940271268 gnorm: 0.000775573655 xtb: 6.5.1 (579679a)
Au          -4.94379792437563       -4.94696876198830       -4.93277818777987
Au           0.00357289833987       -5.93629566955200        0.01536813591893
Au          -0.00358004769146       -2.11822059147878        0.00864559899858
Au           2.09442854388125       -2.09518114203698       -2.09472412726377
Au          -0.00726896160186       -4.24909303784319       -2.26829315648668
Au          -2.17535675055618       -2.17160002142579       -2.15713748695031
Au           0.24177339209176       -7.23160344710369       -2.48744010685665
Au          -0.59600773366926       -4.66688660510290       -5.02982590963082
Au           2.97782480670479       -4.85859792059732       -2.82501243479539
Au          -2.87499787107295       -5.02760160164233       -3.06706222382529
S            2.58854117954806       -7.17827003822057       -2.20086467892553
S           -2.12869537634952       -7.32888271412499       -2.47654668741406
P           -6.30174155810886       -6.31230120783093       -6.32668860667944
P           -0.19956916112133       -6.48474091381789       -6.57950432548233
P            6.58052464096938        0.19404608708029       -6.48324044133485
P            6.33028235723807        6.29677792568261       -6.31226122943283
P           -6.60877455281599       -0.23502929127375       -6.46723453460180
P           -6.46887811136907       -6.60846526799124       -0.25145013430889
P            6.48287514709232       -6.58046899609571        0.19793483567329
P            6.31294748470790       -6.32595244727652        6.29995879533987
P            0.25537814424836        6.46660565018732       -6.61042958413885
P            6.60778359635476       -0.25031972544456        6.46815411967998
P           -0.24950685353648        6.47996947419571        6.59202577826697
P           -6.34657830950101        6.34491258698619        6.34140659015647
P            0.23688793648425       -6.46505756576535        6.60997286830803
P           -6.59466136039238        0.24673301311929        6.47768149151071
P           -6.47931400076560        6.59353690694880        0.24381450224146
P            6.46618047389434        6.60852131353357       -0.23615606397069
Au          -4.96815506996744        4.96734644170896        4.96467231117611
Au          -5.94118977931505       -0.00869893874350        0.01179222373847
Au          -2.12881488156063        0.00195704991185        0.00517632929143
Au          -2.10072267365513       -2.09658966846410        2.11294849835830
Au          -4.15448449060030        0.02790123206455        2.13854875755165
Au          -2.17748868681872        2.17723812061227        2.17623067492276
Au          -7.23125375220857        0.10884096280270        2.51678373546992
Au          -5.03747278160573        0.60842655725777        4.66479929531216
Au          -4.86130156510115       -2.84192382222352        2.98660246605028
Au          -5.03773481633640        3.08294950596266        2.90352493098581
S           -7.18950545728607       -2.25064951460150        2.60578879283031
S           -7.32228703078207        2.45542515751158        2.14102757690045
Au           4.93394861367935        4.94136363997424       -4.94688640995069
Au          -0.01271873472902        5.94032373513096       -0.00935726159998
Au          -0.00638525978151        2.12868470401741        0.00095102460373
Au          -2.11332457168337        2.09966614874092       -2.09767917098746
Au          -0.00681754390053        4.25124765506228       -2.28849641415052
Au           2.15694386352191        2.17442357428467       -2.17187064568348
Au          -0.25697158911233        7.23106433336120       -2.51531531474382
Au           0.60793947841623        4.65281321050904       -5.04674516909076
Au          -2.98677657186620        4.85998808241234       -2.84444800569920
Au           2.87269287271562        5.02256769833188       -3.07477742195709
S           -2.60694290526118        7.18837299108253       -2.25290667596144
S            2.11432617583404        7.32162522963313       -2.48660774309696
Au           4.94619438760307       -4.93230454057372        4.94367268421640
Au           5.93599156697968        0.01278666387629       -0.00469948785019
Au           2.11716707848125        0.00884152800012        0.00231035133679
Au           2.09597953828135        2.11361367743521        2.09951359973701
Au           4.15540747287525       -0.01163370795558        2.12907396161857
Au           2.17066684754369       -2.15668013044722        2.17557160872002
Au           7.22863233778744       -0.12698663382151        2.49676145254633
Au           5.04483828161787       -0.60540285780135        4.65413431125008
Au           4.86054603126540        2.85741486563197        2.96482086504089
Au           5.02670276917919       -3.06633802801631        2.87432696240196
S            7.18039824958560        2.23551462328773        2.57475600441360
S            7.32862318006040       -2.47721882687451        2.12933787647941
Au          -0.02065863784269        4.25896177183299        2.27709260410011
Au           0.22718067848234        7.23920624238044        2.49113186872634
Au          -0.60998298574470        4.66666235526381        5.03500832962761
Au           2.96344552537003        4.87662909545048        2.83693003834111
Au          -2.90616400579691        5.03708848381908        3.08131505604243
S            2.57616058880411        7.19863030126767        2.22580894884163
S           -2.14295580247618        7.32129610096281        2.45316313091921
Au           4.14584026808415        0.03546265671744       -2.13066404459527
Au           7.22495893593755        0.16017457022027       -2.50757781692377
Au           5.03042029191712        0.59277060084129       -4.66594925299308
Au           4.85753324528629       -2.82594466468685       -2.97774880120539
Au           5.01319901347797        3.06379334889806       -2.88574202638014
S            7.17728864635946       -2.20257754657559       -2.58786078238510
S            7.32521176310295        2.51009367898879       -2.14415790319108
Au           0.00817489754621       -4.24236000062809        2.28918255215770
Au          -0.22831617643808       -7.22711257950481        2.52051015798014
Au           0.61856036293270       -4.65716438146243        5.04486516427770
Au          -2.96575966666376       -4.86068928675375        2.85716377493214
Au           2.88503463773851       -5.01252578874209        3.06582216987817
S           -2.57606209615085       -7.18060918768375        2.23586184520348
S            2.14263259013367       -7.32404369587154        2.51166392406224
Au          -4.16491031846857       -0.03037104630178       -2.12550301285523
Au          -7.23352018334689       -0.13570710588711       -2.49034961427281
Au          -5.04449924362862       -0.61841939463145       -4.65903250508059
Au          -4.87650617878988        2.83735660330120       -2.96589485040945
Au          -5.02420025333391       -3.07348360607345       -2.87235242559504
S           -7.19864986403733        2.22714995685419       -2.57815787139831
S           -7.32357870966377       -2.48534261896749       -2.11538908502220
Au          -0.01348482720999       -0.00552108497292       -5.93669233966621
Au          -0.00908099105699        0.00252542535700       -2.11815592256661
Au          -2.28875593366434       -0.00957188978040       -4.24316783056706
Au          -2.51948294232792        0.22659276787488       -7.22842893178622
Au          -2.85646011385544        2.96430459340666       -4.86259575587346
Au          -3.06613208147630       -2.88585498988007       -5.01339497413317
S           -2.23408521955029        2.57435589833184       -7.18227143301249
S           -2.51105735232769       -2.14438235719081       -7.32490256727277
Au           0.00692103167429        0.01317165464648        5.93995730152183
Au          -0.00250476048476        0.00638588145678        2.12836692217801
Au          -0.02844309479870        2.13994287276261        4.15313221038446
Au          -0.11028820120826        2.51910573225127        7.22947369967406
Au           2.84172915573767        2.98774305508392        4.86002106834215
Au          -3.08457353108653        2.90554201724532        5.03558618572908
S            2.24925213815535        2.60860101196107        7.18832183080914
S           -2.45696314122486        2.14343301021629        7.32029713113190
Au           2.26847116664592        0.00562434729064       -4.24889558826038
Au           2.48834569822307       -0.24434267255764       -7.23129208168393
Au           2.82526728667162       -2.97911611728261       -4.85767405601806
Au           3.06833370094791        2.87230255130087       -5.02810427285834
S            2.20119979014122       -2.59094910344999       -7.17754638567128
S            2.47826183733180        2.12608340877024       -7.32941118275147
Au           0.02921848662373       -2.12391060785327        4.16541172578409
Au           0.13498392088748       -2.48814053998207        7.23319568645308
Au          -2.83864785956083       -2.96330040202193        4.87660598340983
Au           3.07356969246297       -2.87074154851597        5.02407703846417
S           -2.22775862411486       -2.57580988393768        7.19855267127211
S            2.48446316337986       -2.11258332231936        7.32274028337123
Au          -2.27904603468117        0.02079274983007        4.25784254139081
Au          -2.49384838213510       -0.22688707088645        7.23841293269471
Au           0.01169199974764        2.12849956878355       -4.15688043478124
Au           0.12827787944113        2.49519193718801       -7.23008653384143
Au           2.28591006314000        0.00716935969618        4.25198080486288
Au           2.51249397983949        0.25867014730267        7.23169722560012
Au          -0.03626503978253       -2.13178366671356       -4.14636355200170
Au          -0.16145927686741       -2.50946892748693       -7.22497611268811
Au          -4.25239187752108       -2.28630743289402        0.00663855774209
Au          -7.23238138327215       -2.51357317944201        0.25590480332893
Au          -4.65567303096426       -5.04508573506703       -0.60650477415343
Au          -2.12999215393627       -4.15582267766493       -0.01144916780185
Au          -2.49719503335505       -7.22879465807389       -0.12647930578180
Au          -2.13980746077473        4.15348317486807        0.02611871765416
Au          -2.51853223474383        7.23040868578191        0.10661364131340
Au          -4.66714576445670        5.03632741882922        0.60619317834504
Au           2.12539489876408        4.16446935914075       -0.03106548861587
Au           2.48930724226275        7.23277558440150       -0.13699542834888
Au           4.65857369066449        5.04312992354542       -0.61949599221218
Au           2.13042276271774       -4.14645362603807        0.03672730581852
Au           2.50698676122212       -7.22458020245232        0.16190190662776
Au           4.66604737970928       -5.02998235377465        0.59564796523305
Au          -4.25889888789175        2.27768236162113        0.01854927180579
Au          -7.23964365168501        2.49302135228500       -0.22918321069421
Au           4.24174652073976        2.28844146361974       -0.00904059841383
Au           7.22761933805415        2.51977099644144        0.22685353971583
Au           4.24845152001797       -2.26810126140702        0.00690936394153
Au           7.23080506621766       -2.48875934419181       -0.24113873441034
C           -7.85919041422257       -5.54189572293764       -6.87324158438237
C           -8.41558012771157       -4.55621551299477       -6.05557150561436
C           -8.53197866017800       -5.90791991665229       -8.04125999384760
C           -9.63462678209093       -3.97975600516702       -6.37619966917937
H           -7.88509863835435       -4.24254787248446       -5.16291081849352
C           -9.74828610256612       -5.32514736867945       -8.36309650597233
H           -8.10015034437732       -6.64582052060337       -8.70789154332748
C          -10.30691953628772       -4.36820327209289       -7.52668591801559
H          -10.06265676822764       -3.22315605513435       -5.72962252785431
H          -10.26165635715090       -5.62063676469164       -9.27106475360813
H          -11.26060242490552       -3.91785475185710       -7.77646013035735
C           -5.51692221960509       -6.83480151276661       -7.88518507422782
C           -5.86637336611962       -7.99972322457833       -8.57180119905308
C           -4.54051605824134       -5.99810898032082       -8.42994337826499
C           -5.27627535818023       -8.30098666335063       -9.78991946658481
H           -6.59748403663971       -8.67992422242283       -8.14973103630929
C           -3.95821019141448       -6.29747904112775       -9.65166353555339
H           -4.23913241561350       -5.10710948598111       -7.88946667772576
C           -4.32947878155145       -7.44582766643229      -10.33724964445314
H           -5.55899156430440       -9.20691048681446      -10.31397935135256
H           -3.21138327239793       -5.63509156863890      -10.07240206800834
H           -3.87412668979251       -7.67883062752763      -11.29279719435005
C           -6.83956530036713       -7.87905718488482       -5.56942159381935
C           -6.02469962299557       -8.43079524227963       -4.57872121634908
C           -7.99685173298507       -8.56292592990238       -5.94858246067262
C           -6.33725727504753       -9.65553593449238       -4.00996519184188
H           -5.14047875188047       -7.89222912245955       -4.25500730406575
C           -8.31071205362484       -9.78506356859471       -5.37359609679046
H           -8.66142231162451       -8.13549291018967       -6.69085654848807
C           -7.47691143346379      -10.33862737145500       -4.41140515542169
H           -5.69284174080115      -10.07958898416476       -3.24930495428385
H           -9.21024447255751      -10.30709618080319       -5.67952086009638
H           -7.72033615390723      -11.29683215324080       -3.96722740396861
C           -6.89814883070867       -1.40915828987761       -7.83180660060271
C           -8.15789961428668       -1.56787571051581       -8.41440343194614
C           -5.83318696149415       -2.17530956091680       -8.31050748852092
C           -8.34282557325556       -2.46542541953142       -9.45409684881878
H           -8.99845521648342       -0.98652452687323       -8.05280551538799
C           -6.01982696709568       -3.06260080388887       -9.35852366702439
H           -4.84703410693356       -2.07713273105931       -7.86737403427484
C           -7.27522195102796       -3.21461212690250       -9.92972900602274
H           -9.32674966175111       -2.58030056551254       -9.89474963609764
H           -5.18084325017493       -3.63862108347842       -9.73114158505830
H           -7.42271663211484       -3.91643581803635      -10.74270253231592
C           -8.27994468600776        0.10304073349379       -5.83035418217160
C           -8.99009959326455        1.28074570203710       -6.06229453235862
C           -8.83978336314683       -0.86439466068327       -4.98870644273528
C          -10.22178870121561        1.48816803986783       -5.45805727040339
H           -8.58086569116160        2.04418110062525       -6.71342754289329
C          -10.07652501415235       -0.66075926863853       -4.39585542430562
H           -8.29653920216332       -1.78157835114593       -4.79623745298576
C          -10.76656618829836        0.52244615389890       -4.62376176104724
H          -10.75672291385404        2.41364422901119       -5.63935623698247
H          -10.49092164243605       -1.42009773124767       -3.74311886838725
H          -11.72570948808081        0.69242197227774       -4.14852700034213
C           -6.09992618687825        1.30780288751249       -7.27699579971504
C           -6.04663276457275        2.46769738824001       -6.49601229678016
C           -5.63758209665239        1.36015226418634       -8.59261867614651
C           -5.56602910573859        3.65216760943137       -7.02730629666344
H           -6.37941101059203        2.43762905503131       -5.46432035774263
C           -5.14706373141576        2.54752908632100       -9.11760279650907
H           -5.66085993309806        0.46969994678224       -9.21007470365461
C           -5.10878430332264        3.69444572904346       -8.33828571495120
H           -5.53726606924148        4.54345835130022       -6.41155715442109
H           -4.78368940237650        2.57198970770067      -10.13862064606526
H           -4.71174989758578        4.61695380315854       -8.74569744529171
C            1.32830888439790       -7.31068468986519       -6.05163939114312
C            2.49396098137960       -6.53962531655461       -5.98129845235568
C            1.36489979702186       -8.62924609636826       -5.59634009131878
C            3.66913083966025       -7.08325876030249       -5.49186421300099
H            2.47517132261680       -5.50547288732405       -6.30723809214712
C            2.54265504264357       -9.16653441170778       -5.09599366196644
H            0.46983219799282       -9.23933951187484       -5.63278826382323
C            3.69554929015376       -8.39703296667729       -5.04154098328077
H            4.56502951701106       -6.47495368506986       -5.44983202984232
H            2.55490865088352      -10.18968351389868       -4.73800630684482
H            4.61036287874744       -8.81426418999632       -4.63691108958885
C           -1.39168606241912       -7.83260405872177       -6.87048567191021
C           -1.57736298628096       -8.39813134054053       -8.13422038321047
C           -2.14886756416430       -8.31319014020598       -5.79973976658037
C           -2.49181169126987       -9.42345038992534       -8.31718948896542
H           -1.00384391713411       -8.03485915615745       -8.97938775512264
C           -3.05312548878574       -9.34675436383692       -5.98461111464427
H           -2.03101674136739       -7.88206379907802       -4.81051034828374
C           -3.23156773697723       -9.90132292894515       -7.24406302736656
H           -2.62721863112357       -9.85120100356692       -9.30418459021560
H           -3.62135331953791       -9.72102200507418       -5.14103320458458
H           -3.94655957661281      -10.70297587543726       -7.39031849208821
C            0.16368481284483       -5.85887531348901       -8.24940817275498
C            1.35613006851510       -6.08537420744869       -8.93622102021985
C           -0.79829048065527       -5.02543154533311       -8.83068211508273
C            1.58342226639101       -5.48335034978210      -10.16552063220412
H            2.11556917384403       -6.73101023348702       -8.51122270405233
C           -0.57452390066790       -4.43465708101151      -10.06486864438261
H           -1.72767929204407       -4.83957566543332       -8.30633252014450
C            0.62344206514891       -4.65633623484383      -10.73107037203692
H            2.51993391861180       -5.66083849971140      -10.68224702291246
H           -1.33000993888777       -3.78851314623580      -10.49627785253003
H            0.80904216979254       -4.18234609149991      -11.68792429118420
C            6.87266587809215        1.38593049370635       -7.83102858136722
C            8.13698489786272        1.57220112605507       -8.39504074807314
C            5.80205767865557        2.14232697781001       -8.31317814571280
C            8.32065408740390        2.48639143704747       -9.42046814878710
H            8.98206074828691        0.99933628772853       -8.03053100258238
C            5.98763590904525        3.04627317953745       -9.34688268737936
H            4.81240482835624        2.02414652943017       -7.88312204816735
C            7.24765730399180        3.22526830014135       -9.89998271314286
H            9.30809471321322        2.62224732822322       -9.84704542955295
H            5.14415996062375        3.61380985811736       -9.72241961379120
H            7.39444884978220        3.94001000226230      -10.70176096354187
C            8.24996136285171       -0.17039026669576       -5.85681629586480
C            8.93568723755222       -1.36364992844265       -6.08230471579911
C            8.83191760018093        0.79156101610101       -5.02381902346391
C           10.16454466080426       -1.59177104074018       -5.47969143495432
H            8.51021454437574       -2.12308159993405       -6.72763375578549
C           10.06566745872801        0.56695230225954       -4.43245202975328
H            8.30847745990333        1.72164794105948       -4.83891990867269
C           10.73074142543359       -0.63183232186101       -4.65307420223979
H           10.68041836033797       -2.52889640856016       -5.65641842898206
H           10.49761920342073        1.32243701064348       -3.78666944357739
H           11.68722865504615       -0.81808341052187       -4.17860055725152
C            6.05193312024857       -1.33351731004793       -7.30933178423558
C            5.98055616726314       -2.49908418321352       -6.53824106200854
C            5.59734701104955       -1.36997443540041       -8.62814020632771
C            5.49086324607412       -3.67405780646993       -7.08206822202463
H            6.30590103704085       -2.48038365463782       -5.50390251631178
C            5.09668947884441       -2.54750957996531       -9.16561966710769
H            5.63458541216770       -0.47497850756563       -9.23828948365368
C            5.04125701144129       -3.70033698899839       -8.39608852274900
H            5.44805426960842       -4.56988904480223       -6.47372068548647
H            4.73925674183956       -2.55964352282401      -10.18896384271870
H            4.63642539235940       -4.61498156577959       -8.81349361256935
C            7.88900769282825        5.51054753181741       -6.83195115017325
C            8.43291338779862        4.53575482179513       -5.99281731700508
C            8.57672622851082        5.85767242399867       -7.99691177523368
C            9.65491246075186        3.95285087474088       -6.28988829848057
H            7.89163526082124        4.23615122924150       -5.10169813487955
C            9.79507457381999        5.26688760295505       -8.29590313082993
H            8.15535454577333        6.58751141784433       -8.67890929232491
C           10.34156775339486        4.32177373814523       -7.43835394437985
H           10.07509810496963        3.20745608865697       -5.62554758315429
H           10.31999570462697        5.54779987544594       -9.20188932803080
H           11.29731904856529        3.86592895113598       -7.66955069378044
C            5.57489040699309        6.83290892130837       -7.88048444616374
C            5.95528321596377        7.98906319490401       -8.56557890266215
C            4.58425219814324        6.01782149053762       -8.43201350892465
C            5.38156603503214        8.30156489045771       -9.78866385112848
H            6.69752684594377        8.65381759368632       -8.13838029749830
C            4.01674024216501        6.32902817327294       -9.65767532950734
H            4.25961504277693        5.13446837788520       -7.89257841278560
C            4.41941095360477        7.46753593234907      -10.34195658311485
H            5.68846501634453        9.20020511379569      -10.31166006922271
H            3.25611607480486        5.68443896816079      -10.08152920457080
H            3.97623116697246        7.70989756072118      -11.30089238531833
C            6.87702915222506        7.85475992778652       -5.54308031734329
C            6.05931699812456        8.41216232574493       -4.55801976302263
C            8.04543381200483        8.52681605619235       -5.90922946503535
C            6.38030156870633        9.63142802192661       -3.98222819893923
H            5.16633836773409        7.88225398403054       -4.24430266687788
C            8.36758262516325        9.74339520533275       -5.32720316586456
H            8.71212286365740        8.09418728538338       -6.64661084266800
C            7.53115804016498       10.30299500582817       -4.37083128026896
H            5.73374390834412       10.06015145243591       -3.22599756301318
H            9.27583948494439       10.25620254561008       -5.62278349792896
H            7.78122335938872       11.25686017986826       -3.92103046813115
C           -0.08155853825463        5.83682844339448       -8.28439712363171
C           -1.25743366362392        6.07620136377965       -8.99515857212945
C            0.88119566036423        4.98977140840198       -8.84418904663173
C           -1.46751440770917        5.47442564964255      -10.22756857977945
H           -2.01741225890118        6.73124796633846       -8.58573538021782
C            0.67464976649742        4.39882345359781      -10.08130165363791
H            1.79667945533088        4.79088045464465       -8.30036247176466
C           -0.50654690344515        4.63453933010401      -10.77217213427781
H           -2.39146553953311        5.66176895398502      -10.76305422101830
H            1.43004506151310        3.74129797103260      -10.49538539413751
H           -0.67874395665059        4.16093373323681      -11.73172854880369
C            1.44962826685712        7.81610940336140       -6.88590606033407
C            1.65212411734563        8.38016941700106       -8.14769221923757
C            2.19097291488881        8.29942897729954       -5.80539770405037
C            2.56795462907335        9.40622990428922       -8.31940722466655
H            1.09076983709926        8.01511269583707       -9.00023219180689
C            3.09693290827396        9.33343955420884       -5.97919988962633
H            2.05923451965184        7.87023420686658       -4.81706004189135
C            3.29264633138265        9.88607654880996       -7.23695432123744
H            2.71652139415925        9.83275877862920       -9.30503870001613
H            3.65275787619775        9.70967482247693       -5.12824236373112
H            4.00911457364120       10.68794200255091       -7.37456122493813
C           -1.28189944580627        7.29023582326251       -6.10793459601690
C           -2.44545555070032        6.51479999839214       -6.05115226428145
C           -1.32905130829599        8.60975310119821       -5.65660215801468
C           -3.62859657263337        7.05543937370905       -5.57825156123369
H           -2.41881543656929        5.48005738368612       -6.37487901002057
C           -2.51525311326430        9.14404014930405       -5.17329116726244
H           -0.43568380671482        9.22287405098119       -5.68281524660942
C           -3.66581828501120        8.37027052829138       -5.13164903133567
H           -4.52277288688100        6.44400435333099       -5.54641491854125
H           -2.53599015633392       10.16815335307189       -4.81849564045164
H           -4.58743720200773        8.78503825535252       -4.74027724589413
C           -7.28796144095806        6.10837216429924       -1.30578712254495
C           -6.51047999375059        6.08039737665175       -2.46892192667506
C           -8.59656045856204        5.62607839157381       -1.35757416670973
C           -7.03866901530383        5.60245862920420       -3.65588218822390
H           -5.48418156330655        6.42972045814409       -2.43901878625813
C           -9.11847130294043        5.13996591338975       -2.54801236477351
H           -9.20965306791266        5.63002834108653       -0.46377671431031
C           -8.34238849932432        5.12481018390092       -3.69774383537741
H           -6.42601313096470        5.59165728710567       -4.54975981305614
H          -10.13366485313822        4.76067224956327       -2.57272894649280
H           -8.74677256448081        4.72984586580236       -4.62249038301475
C           -7.83664244493215        6.82969242408981        1.43800153358071
C           -8.51378768339242        8.04602014427314        1.56116930521224
C           -8.19709032090822        5.77076903886684        2.27338355797015
C           -9.52241902275208        8.19451977247188        2.50063458507604
H           -8.24940057724296        8.87932627737008        0.91982098864387
C           -9.21557462104852        5.91753542128570        3.20116591664091
H           -7.68550486933492        4.81753320549327        2.19509876162317
C           -9.87631734747712        7.13189347708317        3.32161316461004
H          -10.03538148636885        9.14543541921302        2.59113625540945
H           -9.48788085375585        5.08045193998044        3.83390706683823
H          -10.66503544542834        7.25127536724307        4.05576322119229
C           -5.86947570556518        8.28338008563036       -0.04681775720048
C           -6.12553550369686        9.02444704542199       -1.20017585806450
C           -5.03102166694362        8.82959753884493        0.93156132073608
C           -5.54980562826841       10.27502704775343       -1.37285699725530
H           -6.77287544335391        8.62393428472933       -1.97151018276740
C           -4.46751747882043       10.08511241083824        0.76275766482693
H           -4.81289952614709        8.26200222967564        1.82832877365889
C           -4.72071120893024       10.80744644201896       -0.39577474062283
H           -5.74968311862844       10.83479283840722       -2.27961199623254
H           -3.81915318364080       10.48970725470756        1.53110841191861
H           -4.26887686548900       11.78229504225672       -0.53804667435574
C            7.27431210630195        6.10111575178112        1.30801427129181
C            6.49214277917052        6.04890285230029        2.46715621411507
C            8.58978193984158        5.63852646631192        1.36206943654291
C            7.02211917652186        5.56905847909512        3.65252732908904