600
 energy: -784.609722819121 gnorm: 0.000043518169 xtb: 6.5.1 (579679a)
Au           4.22977297485513       21.24021410801347        5.94573311526627
Au           2.85520580720461       18.44693563153717        8.42516093232873
Au           4.56831486102638       15.11952588585024        7.32613192578661
Au           7.11741378277311       16.33804691268747        5.14631893504075
Au           6.77036610183103       20.09584145864130        4.63520420049280
Au           5.00103790722148       18.24961277527387        6.36179191472777
Au           6.79054445914482       16.51786278664597        9.00742296525738
Au           5.28258583109728       13.09605630626059        9.39502175435867
Au           2.97377881722781       12.61056865731540        6.74886332548727
Au           2.73517811017127       15.57622982908610        4.88209252011960
S            5.53934800151103       22.08597972585963        4.19334170622626
S            2.56871224673997       20.63048730062900        7.58056282941717
S            2.82997152295938       16.09292811224120        8.78964227447192
S            6.28917448407207       14.24123782263586        5.83829611067521
S            8.23057686169223       18.25068006136619        4.36057279453994
S            6.75101096258523       18.65263710590978        7.99185433169298
S            7.01770507533678       14.49339987649178       10.22760505132964
S            3.36405875750348       11.80896460937746        8.92884060578043
S            2.16110251783512       13.31691873032565        4.65190291736564
S            3.43703424898337       17.81163447304095        4.58523240415289
C            6.46133644243221       23.39845912766304        4.90418036728579
C            7.54746130306042       23.17955003757776        5.74638971665359
C            8.28788261012769       24.24033503762212        6.24954932182958
C            7.93378365106309       25.53265071211316        5.88894150227676
C            6.84768805987744       25.75712997667347        5.02398828612004
C            6.10192370680556       24.69938813345252        4.54139937816554
C            8.52157725539201       26.81632191055141        6.24519261019201
C            9.58143896667482       27.12436689011870        7.08770618639812
C            9.92839121201603       28.45971868947978        7.25276074466845
C            9.23277582891060       29.46307714342456        6.58818657446466
C            8.16987713722633       29.15698596303988        5.74124006799936
C            7.81567257367207       27.83082672125418        5.57533006200851
C            6.71468798646027       27.23751729229244        4.71684832605297
C            5.32168462022754       27.78833487742315        5.08125935955603
C            5.02103420382620       27.66923562114965        6.57720757058941
C            3.55704926793614       28.00040530840105        6.87782517415287
C            3.24319078351350       27.82410566968146        8.36640463163908
C            1.74093160275585       27.91798821820547        8.64755325818522
C            1.42807952086302       27.59640901362738       10.10786240219235
C            6.97634033568259       27.51013975631973        3.21837849060542
C            8.30970447760712       26.92697539708237        2.74044075936732
C            8.51654089824652       27.09119336098254        1.23152375829272
C            8.73001476366871       28.54933239677120        0.81378986514513
C            9.01510472063992       28.65707531280221       -0.68748091274527
C            9.22412850368418       30.10898144325597       -1.11414405438118
C            1.15585765272079       20.23396144911597        6.61566004804454
C           -0.04956577008035       20.00170908829716        7.27883904810518
C           -1.21158321107535       19.73204339226505        6.57170794857040
C           -1.16280157023247       19.70976472507694        5.18285241238868
C            0.05023559410306       19.93707345836109        4.50771385444504
C            1.20679918809842       20.17817175935582        5.22286202467769
C           -2.21062631770469       19.48399235773258        4.19715409082762
C           -3.56215831903458       19.20479549776552        4.35581718080144
C           -4.34452670835363       19.04683476740783        3.21848427004819
C           -3.79072859525242       19.17547278016992        1.94986230669448
C           -2.43539446552603       19.45104494839404        1.78751191207464
C           -1.64569279870084       19.58999383183633        2.91474011335123
C           -0.15743416181322       19.87682017351599        3.00465251588819
C            0.12093255290450       21.23706854818615        2.31500018432604
C            1.52972382852194       21.79970337559079        2.53160705656548
C            1.88251963386686       22.85032714060005        1.47566566915435
C            3.28039983462818       23.42732114882927        1.72535431220669
C            3.81275096281627       24.16570919564214        0.49450576423090
C            5.21237641172623       24.72556589176652        0.73794899938035
C            0.68568876587640       18.77472247813492        2.32858396964167
C            0.48737670604305       17.35579298542211        2.87144464880262
C           -0.77337804797385       16.64042322791477        2.38214699360166
C           -0.73316027813260       15.15169995974320        2.73738585919790
C           -2.01150432349791       14.44028321014846        2.28666644204870
C           -2.00779513456131       12.97012443248947        2.69808098361837
C            1.34494591158107       15.65766905696177        7.96365431795440
C            0.75719833059089       16.48928060931564        7.01039172348779
C           -0.46500086850581       16.17243546537486        6.43180146028428
C           -1.09595691130244       14.99725288850799        6.81101861791037
C           -0.49875754285256       14.14135418299271        7.75540094459540
C            0.72186531631151       14.45847579026820        8.32268669615758
C           -2.39574398317921       14.45528617040874        6.44178688313308
C           -3.35444934767829       14.92641687195218        5.55432127989442
C           -4.52185137197664       14.19030391841236        5.39066308145471
C           -4.72822936708401       13.01555533634810        6.10471146709780
C           -3.77788910276357       12.55298161392608        7.01218598159145
C           -2.61234380141941       13.27777303694422        7.17796110683613
C           -1.44896997885169       13.01350798029602        8.11391362420566
C           -0.84354340593539       11.60985886736110        7.92417121060413
C           -0.38552460461142       11.36219231940137        6.48668457167828
C            0.17195696758381        9.94465852462641        6.31216573964528
C            1.07060318681549        9.78743450613608        5.07972933686104
C            0.42723993164359       10.31732599201143        3.79584782630022
C            1.27111484065966        9.99811517583393        2.56427745107064
C           -1.88837234115872       13.16568959918068        9.59023531857961
C           -2.35031942067642       14.58458896337465        9.94060653488900
C           -2.45569808668421       14.78196547887257       11.45568761147103
C           -2.60815642430703       16.26451667494797       11.80933059226646
C           -2.56494994473324       16.48451487889386       13.32415415537870
C           -2.66854221241102       17.96655940206687       13.67856042128729
C            7.54517837365376       13.60829878943468        6.88022871792233
C            8.65784164431398       14.35560751488294        7.26131348064849
C            9.66816100157165       13.80275759048719        8.03628936913959
C            9.54945960053521       12.48143513037086        8.44651882034224
C            8.41787299335157       11.72835296702589        8.08688764867339
C            7.42004304417999       12.27950963178828        7.30524941116129
C           10.44876989496579       11.62900484361807        9.21364500402706
C           11.69352029137261       11.89183870555720        9.77038511463014
C           12.35381882154509       10.86376796698524       10.43221534605843
C           11.78473734296846        9.59950601578744       10.53300154618277
C           10.53282069123992        9.33390037044777        9.98239602851221
C            9.86866621764523       10.35303831165288        9.32540536757000
C            8.50526404318648       10.32977595194249        8.66389378590940
C            8.39726465392554        9.24123447741956        7.57851598656712
C            9.42424850170245        9.41022134183865        6.45785629423558
C            9.31867162971974        8.25978372750530        5.45387960489411
C           10.24765536022142        8.47257552183429        4.25652377610542
C           10.08502068116072        7.36413503624587        3.21306855023983
C           11.00735666268922        7.58752233443401        2.01627820501254
C            7.37815289386955       10.09012359074686        9.69272637737967
C            7.55902584594544       10.83399258526629       11.01792574246234
C            6.27572892749633       10.73499534055006       11.84610927333373
C            6.46633093111096       11.20143708292750       13.28861414814359
C            5.13225212830942       11.19727385769569       14.03969504133770
C            5.29499830635746       11.63277171514494       15.49372686505269
C            9.48640912262811       18.36183284340841        5.57612565924682
C           10.40317575445325       17.31358744611252        5.66462522534771
C           11.45297912473312       17.35419520037230        6.57039582169035
C           11.58537019550643       18.46790252694315        7.39021315143376
C           10.66107088400670       19.52374894481481        7.30434455851189
C            9.61443690546787       19.47482641062496        6.40594616006587
C           12.58220385736212       18.80385892782952        8.39906209802680
C           13.69263986369290       18.10189036006991        8.84900851249996
C           14.48856201803837       18.67848230777656        9.83164587918903
C           14.18281516538943       19.92986861973140       10.35355326922162
C           13.06831948656262       20.63602692530226        9.90731003430862
C           12.27151031980362       20.06842881548641        8.93010231010040
C           11.00780023281820       20.61686803269705        8.29494980643699
C           11.25595963870464       21.97067662345008        7.60281752556030
C           12.42332255025383       21.93692735727448        6.61512264908864
C           12.71410635308779       23.34434963769838        6.08549340437286
C           13.79521794111161       23.35768526908793        4.99938907371386
C           15.18519591407500       23.00969050304032        5.54190954436906
C           16.24661893001623       23.10768718231141        4.44739353070664
C            9.89472849301532       20.80611441322222        9.34769555787048
C            9.70041892879220       19.57001178389973       10.22792275461433
C            8.82818832813458       19.88173005597928       11.44700200631837
C            8.98497624742359       18.86037162019096       12.57856940740833
C            6.00065996192640       19.77125010571221        9.10762496651717
C            5.40599688106442       19.35678832259482       10.29828248472830
C            4.85580438694694       20.27957820153448       11.17945838109888
C            4.87668038447438       21.62616986723532       10.84477081867936
C            5.47212691328849       22.04922772945891        9.64266633006578
C            6.03790347210766       21.13168157979167        8.77916889803303
C            4.39278288425620       22.79852252982207       11.56216905490342
C            3.71626827454843       22.90822557733337       12.77025910342830
C            3.37416467349785       24.17560339075327       13.22626394225178
C            3.71066670521945       25.30988844850089       12.49659984235483
C            4.38765220876967       25.20364360911877       11.28388550110104
C            4.71813250985588       23.94483189894444       10.81650840958170
C            5.40586656373565       23.56058727151585        9.52118141528891
C            4.58534726738776       23.99590994451569        8.28725344012658
C            3.07542389762620       23.83169464474628        8.45663524097620
C            2.35226309769623       24.10333953601141        7.13694740179069
C            0.84232095286557       23.88783727742773        7.26434345064346
C            0.14034472223644       23.81186769653138        5.90510670628456
C            0.30064335526057       25.08251996262429        5.07171045665085
C            6.81042193616716       24.18339056385178        9.39899849962867
C            7.72721393817511       23.85778904402033       10.57890510282616
C            9.11872894529271       24.45171200701268       10.34548049172298
C           10.06848010220740       24.15079220071366       11.50763874063837
C           11.49806526459271       24.59423096407040       11.18432553800804
C           12.46422121129862       24.23739930129723       12.31209264863569
C            6.16176102385200       14.93666556775167       11.70027918600314
C            6.78004896166092       14.75513885796716       12.93486094418828
C            6.10458979121590       15.03463476892153       14.11975274920626
C            4.78745753029515       15.47239202551475       14.05616356420312
C            4.17352298986582       15.65797756218070       12.80788610544325
C            4.85407996768693       15.41405245210574       11.63659977716538
C            3.80171356384563       15.76349329839588       15.09107503995056
C            3.90229905718860       15.70109727920887       16.47428638073730
C            2.77633355278915       15.98859996241814       17.23645480754609
C            1.57246235076072       16.31990668325077       16.62725220074324
C            1.46722691159391       16.38239480494121       15.23951192586612
C            2.58598416879989       16.11564316590460       14.47261720428890
C            2.73653116504218       16.11555070075481       12.96236534971445
C            1.77660984511484       15.12967549812073       12.26991553964718
C            2.03906150655991       13.68976172404369       12.72473255787093
C            1.14060452326671       12.69190451536808       11.99574088295179
C            1.40142889209323       11.25834585063045       12.46297454111623
C            0.53047098471427       10.23327705526570       11.72838417048132
C           -0.93741592965144       10.27980006394627       12.14852251319349
C            2.65597112142761       17.53641552325934       12.36165795423155
C            1.27611329930154       18.18976587971718       12.27168996145656
C            1.44887092753256       19.60516687730647       11.71364949704141
C            0.13019147640638       20.32268945069361       11.43041396488179
C            3.89167500265501       10.15445696361976        8.67772122722339
C            4.48209659677562        9.73789914151219        7.48730019257970
C            4.80820200743065        8.40586972483290        7.28091452321173
C            4.51260425802554        7.48260918285318        8.27426273959008
C            3.92381890607783        7.90012098235171        9.48089266009226
C            3.63121255897019        9.23373372979626        9.69539164131164
C            4.64802318970742        6.03263135294483        8.29739163326989
C            5.18499067078246        5.15689267898635        7.36325013232974
C            5.15629733925002        3.79521461984584        7.63854461978480
C            4.60600220341605        3.32072987881147        8.82345632602558
C            4.07834576873002        4.19758977395383        9.76853068878966
C            4.10265139652383        5.55390522923791        9.50101194929393
C            3.62115016946244        6.70374343644848       10.36476962380301
C            4.39209439344735        6.76236867209096       11.70151074264147
C            5.91023692407679        6.73926615004394       11.50821056137344
C            6.63975278648897        6.98746389167595       12.83119552468047
C            8.14316490382061        7.17846590255828       12.61215734164688
C            8.84910683010586        7.59869165429647       13.90440035969979
C           10.32292998752221        7.91504157341451       13.65856835242627
C            2.11268801482736        6.60023419271996       10.68062762297607
C            1.21915666319698        6.82679073370966        9.45811935019220
C           -0.26315658174791        6.76119487626679        9.84266975282353
C           -1.14257010316005        7.37801987817464        8.75197900691902
C           -2.62399669194030        7.36757364500543        9.13803335802091
C           -3.47794581345973        8.06301744927020        8.07934957401608
C            3.37216024897514       12.97265985100158        3.42716821468063
C            3.09422432724966       13.38726930468633        2.12358611435062
C            3.95600469234784       13.09025689937824        1.07877132379895
C            5.10969200351322       12.36528954340524        1.35150074891386
C            5.40840340190449       11.97661108303361        2.66871894322606
C            4.54693138491866       12.27538851472386        3.70650840413678
C            6.13583641013307       11.83022341060046        0.46531465265936
C            6.28733480538058       11.92766691531143       -0.91173436440379
C            7.36104046855523       11.27761692008763       -1.50813080281386
C            8.26192434928164       10.54305320188872       -0.74587087102450
C            8.11620978991780       10.44828281752666        0.63595484753898
C            7.05183974276875       11.09443339485917        1.23699211836044
C            6.69754270531946       11.17923837141549        2.70883747272613
C            6.48738042015200        9.78600561936349        3.33556444822889
C            5.26363818140125        9.05337201336143        2.78131005704935
C            5.19503927297993        7.61938083064070        3.31601472713235
C            3.80108769906900        7.01743200279017        3.12268731480518
C            3.70235121527611        5.61093974816668        3.71906634808605
C            2.28702974638677        5.05062269319346        3.59304471870740
C            7.79695330892559       11.91369643273259        3.51379833267939
C            8.45996917761174       13.05521526527933        2.73671280714851
C            9.37742160251632       13.92476858821182        3.60340311049776
C           10.40300236467468       13.16759717427316        4.45161595570491
C           11.40684704779468       12.36534026908360        3.61963184940942
C           12.44602004739865       11.69565093296734        4.51721723886141
C            4.47379661863781       17.62593115033446        3.18477463455997
C            5.05327222652013       16.40464991068565        2.84141398208015
C            5.79350806282130       16.25965789228890        1.67608611765939
C            5.94064971833510       17.35814438737562        0.84138506735713
C            5.37046574026042       18.59598276719961        1.19001237799715
C            4.65760607155355       18.74251277541846        2.36483878259274
C            6.57374797495160       17.48816357150937       -0.46381563745538
C            7.26981382689611       16.56179625858474       -1.22889958444286
C            7.75993616546742       16.96132021327350       -2.46627303676399
C            7.55679302313452       18.25651383825944       -2.92832450344807
C            6.85760860646822       19.18769139772113       -2.16366924852270
C            6.36800892064888       18.79816986279071       -0.93085987210413
C            5.58569110834098       19.60977112282683        0.08351702746819
C            4.23074594219382       20.08474662983282       -0.48451982358790
C            3.32805285405335       18.92068559290386       -0.90210380636524
C            1.95344205995702       19.41882530534730       -1.35484202732454
C            0.99775590158617       18.24734155397657       -1.60033047075477
C           -0.42098998061420       18.73454794833031       -1.90754915565909
C           -1.40273157146837       17.56877247900295       -2.00802524834369
C            6.37976447645479       20.83686611246768        0.57134884323358
C            7.77136149118538       20.46311652515287        1.08445488033146
C            8.46342832066341       21.67372066695204        1.71275924101458
C            9.79511147031129       21.27724982868264        2.35795932863730
C           10.31801432424473       22.34411722312683        3.32309049897311
C           10.64677087762233       23.66814075383378        2.63636208339936
C            8.54876313847197       17.43591495165177       12.20956982504575
C            9.67352732204320       16.56405411372457       11.65207377493983
C            0.40319767360873       21.72056696365400       10.86415843985861
C           -0.88803323556526       22.45721881067901       10.51707695304091
H            7.81638127845557       22.16465509190841        6.01156379906317
H            9.13716632895077       24.05552475302186        6.89604792468946
H            5.25682126452015       24.85582876308899        3.88195613532076
H           10.12628820672810       26.34362429957288        7.60691554681492
H           10.75176115036549       28.72290219567352        7.90763733812930
H            9.52062407226219       30.49876820767224        6.73090257231444
H            7.63559785375522       29.94884119785011        5.22789819614099
H            5.26068980647752       28.83792541910726        4.77721305734031
H            4.56955434606893       27.23293680190432        4.51128994814073
H            5.23348555645639       26.64603322572688        6.90389956883086
H            5.67820678904493       28.33823993677905        7.14158836909396
H            3.33780303227821       29.02857953891429        6.57173258819033
H            2.91295453373052       27.33666636361712        6.29002216600589
H            3.77781372233899       28.58175840573005        8.94880923669444
H            3.60459297978875       26.84432655865269        8.69470915663147
H            1.38384912906367       28.92469003973170        8.40679915204535
H            1.20591328074856       27.21303090859979        8.00161484568576
H            0.35614344264696       27.67703344102900       10.29062484201630
H            1.94747623626696       28.28732733975466       10.77342725213714
H            1.74452882164411       26.58028713865586       10.34994086346054
H            6.15791846357115       27.07411207178139        2.63684331927310
H            6.95947193087544       28.59194353718535        3.05710913135634
H            8.33506225440590       25.85840841192865        2.97653999761519
H            9.13476792423966       27.40378421634113        3.27951795463187
H            9.39408307208028       26.50467128357073        0.93863781462070
H            7.65346039629995       26.67896097243093        0.69728121468438
H            9.57028901007380       28.97050339490667        1.37657681694414
H            7.84059700058036       29.14107910228023        1.05383099398037
H            9.90920319636342       28.07332279436056       -0.93139170460495
H            8.17674894838395       28.22965915412757       -1.24810891111515
H            9.42510099403404       30.16128564042845       -2.18462574033525
H           10.06925617791247       30.54652042517020       -0.58075159869339
H            8.33461882156675       30.70285221416819       -0.89883123977084
H           -0.07184244985575       20.03236003558613        8.36074461544173
H           -2.13954652444357       19.54879858786321        7.10098088545141
H            2.15923167187576       20.30297230846913        4.72559917940680
H           -3.99975753852065       19.11250308015097        5.34344867891802
H           -5.40109848502806       18.82503408756692        3.32099586914799
H           -4.42033945666833       19.05654082669546        1.07509146471325
H           -2.01394669531739       19.54407003764123        0.79282754059377
H           -0.05176129688211       21.10075806163334        1.24201060252195
H           -0.61307395308569       21.96531994394078        2.67383089725608
H            2.27414995100168       21.00009167724513        2.47635098083792
H            1.59968552056489       22.24857928584968        3.52661954168078
H            1.85184893855819       22.38204501270114        0.48553418161776
H            1.14161928495152       23.65611343724998        1.48404557215216
H            3.97114098613142       22.61582205639141        1.98205887145782
H            3.24897045644634       24.10694494958743        2.58392723497696
H            3.84315915627871       23.47382918702929       -0.35435993522137
H            3.13269564609089       24.98307589654415        0.23269260055053
H            5.58947038029024       25.20941555714338       -0.16358657782907
H            5.90288897412186       23.92927254185643        1.01945089874588
H            5.19063141018877       25.46218060939455        1.54201854625682
H            0.47046987887407       18.78463017071818        1.25661914682829
H            1.74291077992942       19.02475232427215        2.45516660048445
H            0.49355689454219       17.38059391884397        3.96458062269698
H            1.35567457279314       16.76789794010845        2.55376217237396
H           -1.66007731214448       17.08861946449093        2.83654967111068
H           -0.86175999807303       16.75310718962659        1.29594548866347
H           -0.61301598437750       15.03812575683086        3.82026322463866
H            0.13397539019186       14.68194492949601        2.26053529738156
H           -2.87971135125068       14.93858320488690        2.73054688645466
H           -2.10703264601610       14.51694423480036        1.19835034097332
H           -2.93791505423420       12.48897388546201        2.39419058732477
H           -1.90873476397922       12.87843390697284        3.78080372307205
H           -1.17565300904084       12.44571942573031        2.22705522120971
H            1.23211076912888       17.42828211018056        6.75976356695734
H           -0.92516858979389       16.85689428632492        5.72959196889126
H            1.17303696609914       13.82963628832728        9.07971202048378
H           -3.20120349098673       15.84923894889876        5.00601249927129
H           -5.28160921123750       14.53700137258330        4.69891023755763
H           -5.64487294925897       12.45477585301395        5.95922024652307
H           -3.95716032026362       11.64214517020830        7.57311369732004
H            0.00972546333561       11.49760983255558        8.60146598489447
H           -1.59260283988437       10.86349748279001        8.20736564635755
H           -1.22470800548967       11.52004952913817        5.80247746733755
H            0.38357606732493       12.09762417684594        6.23572048574096
H            0.76125692925991        9.67534740574105        7.19590342698489
H           -0.66337161576852        9.24008892429824        6.24476631503729
H            2.01484437774688       10.31641591147756        5.25237104607859
H            1.31184899368770        8.72534419226222        4.96042562041135
H            0.31822850684841       11.40388456551733        3.87231562603446
H           -0.57148020978914        9.88436360152306        3.67737915563780
H            0.81036756722023       10.42482273659318        1.67262052081884
H            1.36097205470522        8.92000516477962        2.42594358844194
H            2.27168569515999       10.41970479842458        2.66949416617395
H           -2.68694788499851       12.44840917885949        9.80150507342335
H           -1.03234412279749       12.90628939307604       10.21836727587751
H           -3.31427065272937       14.79263984395441        9.46619341858576
H           -1.62762105499406       15.30705478227556        9.54902915942339
H           -3.30127879400950       14.21166889737225       11.85331466525004
H           -1.54615872045024       14.39877415350121       11.93165244744697
H           -3.55223905955070       16.64580198336423       11.40632530287468
H           -1.79533281002954       16.83160998348179       11.34071305106779
H           -3.38616529569826       15.93641211788719       13.79782980056797
H           -1.62579278222356       16.08244527045135       13.72082832374856
H           -3.60475554766194       18.38565711322459       13.30735421375236
H           -1.84162778871002       18.52354129269735       13.23504011620806
H           -2.63287121194122       18.09865896300635       14.76035233429561
H            8.74979189962020       15.38107124735983        6.92515886090871
H           10.52997963052451       14.40131493857101        8.30796411379057
H            6.57068992991993       11.69325097139680        6.97772500156091
H           12.14366166459010       12.87485727443826        9.68973902849292
H           13.32765039355449       11.04810366356178       10.87235417168414
H           12.32292492308227        8.80895366063206       11.04396559694611
H           10.09726110923289        8.34451134837831       10.06772311498726
H            8.53029340914486        8.26269810373934        8.05097564804746
H            7.38856835767608        9.26846600541575        7.15396580167949
H           10.43384805754010        9.44070949058730        6.88009760591688
H            9.24952428830072       10.36216489256021        5.94590099586207
H            8.28401589794650        8.18088850904316        5.10259345544535
H            9.56880844285081        7.31645028722328        5.95093993906489
H           10.02282784357559        9.43863475410525        3.79135913807638