242
 energy: -373.064949851678 gnorm: 0.000035813035 xtb: 6.5.1 (579679a)
Au           5.98982642262218        4.29417684387448       18.63472973071792
Au           3.84839451958549        5.73626512682869       20.33273989928995
Au           3.18966441779144        4.44872539943674       17.45361294875979
Au           6.08537959343022        6.56924482818244       16.79733157570601
Au           4.36119179042237        8.01651371507803       14.66006134049271
Au           3.18984036353094        7.86376064467001       17.45377541308793
Se           5.36478662875681        4.29026870998272       16.29814718463716
Se           4.35526552294013        8.01799244839357       19.62323654261500
P            6.65423703970685        4.14870660640458       20.88334940611265
P            3.78854962179007        3.69267020448632       21.48680119096672
P            7.22997916177205        8.61681454568600       16.85730438753169
P            6.61004872081550        8.16627906024012       13.99523703180831
N            5.44670306168922        3.38990875224701       21.88728556692030
N            7.61553733884966        8.93127399531861       15.19802327994172
C            5.78118071303258        2.32009560207511       22.85797886961715
H            6.60621788824276        1.72223197934454       22.46203413277310
H            4.91153484342663        1.66512484788557       22.95929139421718
C            6.15791425979715        2.91522165228740       24.21290859794082
H            5.33318633664218        3.53364983138550       24.57940556960555
H            7.03258645873630        3.56146284983018       24.09208173017105
C            6.46602793881068        1.81093125223525       25.22062459439654
H            5.59466560071667        1.17087953881253       25.36345260632692
H            6.73717985024043        2.24821969916556       26.18089370451922
H            7.29619095204623        1.19603407286349       24.87136585152510
C            6.92647213852081        5.79001880516142       21.62328104114269
C            6.25322410866197        6.27406046165718       22.74415972091905
H            5.57617459890520        5.62475540203636       23.28560444611913
C            6.44806028260620        7.57947007832310       23.17111922721629
H            5.91654569844502        7.94359043089497       24.04277604368014
C            7.31847886848480        8.41552391914760       22.48644617139975
H            7.46912004894501        9.43520760844570       22.82090341198539
C            7.99714552274232        7.94345819150490       21.36935296517101
H            8.68503665095621        8.59012585803660       20.83641236794341
C            7.79468141388978        6.64384143053377       20.93564531101755
H            8.31274112382423        6.28111647575055       20.05305102963016
C            8.17515309948131        3.23109023449754       21.26220961180233
C            9.10107705106376        3.65091665943007       22.22077383576120
H            8.92183161869291        4.55909139669059       22.78463017054467
C           10.25184958087078        2.91278022783654       22.44983832182479
H           10.96265552934065        3.24613048438342       23.19699564365894
C           10.49414234758269        1.75283826535076       21.72648598160443
H           11.39441847158389        1.17808887102364       21.90928436352929
C            9.58632692670846        1.33317821997854       20.76278515942301
H            9.77625809445566        0.43252097556621       20.19062988698747
C            8.43746690640026        2.07051187634441       20.52700523770426
H            7.73315008956131        1.75002428772822       19.76607207425461
C            2.93814483311045        3.68847733612739       23.09568295614156
C            2.41772427728325        2.54008106184287       23.69879069033842
H            2.51345183190818        1.57824141581081       23.20842928089607
C            1.77141594752726        2.62288299490000       24.92295208988115
H            1.37401469774930        1.72440706387315       25.38048864244872
C            1.63203486671104        3.84851368498858       25.56010484924531
H            1.12522674324285        3.90879531704627       26.51595222314070
C            2.13815975828969        4.99799562541531       24.96758386998664
H            2.02785085212179        5.95867489021792       25.45717878925497
C            2.78087256406918        4.91823211865456       23.74267915661396
H            3.16583994134469        5.81855985846957       23.27571999405588
C            3.22505614813852        2.16946535705619       20.66433587980777
C            1.85100500765652        1.93303160278312       20.54863568915762
H            1.14797342366780        2.61107275444710       21.01975301055264
C            1.38189479024851        0.84336744030084       19.83250833667040
H            0.31478725624688        0.66891604106338       19.75681928107957
C            2.27611346348931       -0.01735264106781       19.21035685762993
H            1.90899448804018       -0.87265826022569       18.65527359310857
C            3.64095771533501        0.22061330118305       19.29939447969502
H            4.34282605106186       -0.44467314524935       18.80980662008501
C            4.11273502597126        1.30948229140231       20.01542120644504
H            5.18010945531260        1.48923685548317       20.07845881855072
C            8.57025152561867       10.01459444084645       14.86126215080658
H            8.66810378151399       10.66831625922410       15.73225068758376
H            8.16190521472843       10.60971860732539       14.04029509083840
C            9.93059535261259        9.43817705592022       14.47501278901417
H            9.81299602593037        8.79235947888900       13.59959650355139
H           10.31018851877514        8.82283249723329       15.29610234462007
C           10.92173862866344       10.55638210556229       14.16331813578225
H           10.55891537153806       11.16889558943302       13.33721374502696
H           11.88580461864913       10.13244828805980       13.88454244730798
H           11.06201902801049       11.19590866981787       15.03547922222071
C            8.84419825681693        8.62214091802147       17.69733591236805
C            9.45110103920349        9.77130211505364       18.21174009882950
H            8.96072422409660       10.73323371375847       18.11695290944242
C           10.67891781614335        9.68911800484471       18.85106573660660
H           11.13936579723476       10.58814792262342       19.24382581969886
C           11.31596947814867        8.46331751667493       18.98966743455878
H           12.27464295353701        8.40351194757316       19.49116713655965
C           10.71969172275962        7.31310132518648       18.48969958732889
H           11.20915000718341        6.35230004153245       18.59954861105053
C            9.49124414343625        7.39232923155835       17.85374263571111
H            9.02128643590930        6.49143955839952       17.47375473940359
C            6.40590952920195       10.13338072804813       17.43601474950484
C            6.30588799083745       10.36539879055811       18.81202515915299
H            6.78930497099945        9.68800704759780       19.50726636441328
C            5.59031279705217       11.45026720633789       19.29301107828535
H            5.52706986379596       11.62142385392168       20.36146189674812
C            4.95271054746899       12.31018133667894       18.40898316384234
H            4.39806487380568       13.16175868395421       18.78533126999120
C            5.02578779343186       12.07615364187714       17.04249410301839
H            4.52403174887059       12.74071358499495       16.34858642140578
C            5.74136936799869       10.99222369761323       16.55882602994123
H            5.79176477442923       10.81552951922093       15.49025857797921
C            6.98183525331358        9.08183433236964       12.47136448203437
C            6.24117942335921       10.23868657548780       12.20795347477375
H            5.48052962158024       10.55764327792263       12.91328241622490
C            6.47129951993117       10.97424141372700       11.05679691895526
H            5.89499867920363       11.87207008790567       10.86600080024838
C            7.43467201586416       10.55637586042815       10.14780427300515
H            7.61304093497428       11.12970983152023        9.24573747793979
C            8.16335416166241        9.40000092978274       10.39119307148820
H            8.91023380137305        9.06803131004786        9.67945002096650
C            7.94000073886799        8.66371468472914       11.54428228523427
C            7.35824280282008        6.52815279377841       13.72610913007048
C            8.49180112762527        6.05797070538934       14.38802618890344
H            9.03642406866781        6.71623203163837       15.05379570618151
C            8.92716774058193        4.75490275059466       14.19624884037409
H            9.80857486956765        4.40160268811225       14.71890800825069
C            8.23843004607432        3.90740377130219       13.34021322080843
H            8.57930922279695        2.88946234924079       13.19222223469048
C            7.10903442649041        4.36572665920749       12.67266644086167
H            6.57260726464103        3.70993014503466       11.99621998082833
C            6.66719499439504        5.66307049530720       12.87198967097667
H            5.77522157663805        6.01516325875077       12.36278295724431
Au           0.38980602591085        4.29459134539337       16.27265449355300
Au           2.53047609254996        5.73658474752053       14.57479126399393
Au           0.29501518687099        6.56924595067589       18.10937647398154
Au           2.01861598631961        8.01616105867167       20.24719616261284
Se           1.01481480134966        4.29007807073223       18.60929038279453
Se           2.02462290123648        8.01851096671955       15.28426842564987
P           -0.27490015990017        4.14900532930563       14.02410103592802
P            2.59069988344991        3.69300788623141       13.42067362673868
P           -0.84978097152345        8.61680857310022       18.04961740157151
P           -0.23029212984181        8.16604120228028       20.91184091526074
N            0.93258112700920        3.39004838590969       13.02023016489695
N           -1.23557387982838        8.93104922303357       19.70889922452597
C            0.59811352095184        2.32007524929878       12.04971249981393
H           -0.22689709254468        1.72225178526911       12.44577588987816
H            1.46777772742931        1.66511637919876       11.94848049421648
C            0.22132307040669        2.91496427653216       10.69469282519281
H            1.04604171009705        3.53331426430474       10.32804369584194
H           -0.65333401381072        3.56123894698997       10.81544716947678
C           -0.08686015694957        1.81050920576909        9.68717814510815
H            0.78448391920014        1.17041821741846        9.54441759153492
H           -0.35805308466145        2.24763576189977        8.72684607703407
H           -0.91701580228296        1.19568662480713       10.03658509480861
C           -0.54695235207234        5.79024884777468       13.28394185124343
C            0.12635648632633        6.27400862988965       12.16297459814833
H            0.80326164097657        5.62449749627589       11.62159856377432
C           -0.06824734934241        7.57939123731934       11.73583010241028
H            0.46332267145753        7.94328688141611       10.86411312483697
C           -0.93849326076974        8.41570434953893       12.42040575925914
H           -1.08893879980192        9.43537366480157       12.08581686506334
C           -1.61724367187168        7.94391301744002       13.53756300498219
H           -2.30500725264279        8.59078306015430       14.07042248828337
C           -1.41501486865851        6.64431897440839       13.97145118430939
H           -1.93313817681015        6.28180776234200       14.85409410442445
C           -1.79589386245825        3.23146261495920       13.64534049393173
C           -2.72180055361148        3.65129893532978       12.68676211516260
H           -2.54247302255896        4.55940221257605       12.12281678965891
C           -3.87266141780240        2.91326881699693       12.45779830970340
H           -4.58345175357563        3.24662831427841       11.71062997426065
C           -4.11506274567409        1.75342213823779       13.18126715672949
H           -5.01541053193253        1.17875793141671       12.99855235930921
C           -3.20725767903471        1.33374522119216       14.14497020479649
H           -3.39727064732122        0.43315926766646       14.71721088609357
C           -2.05830798028792        2.07097329446952       14.38064909316504
H           -1.35400610699341        1.75047453008240       15.14159133718681
C            3.44111210403527        3.68890494426889       11.81179153913257
C            3.96148681606966        2.54052897427592       11.20860237786941
H            3.86572757234388        1.57865894848576       11.69889794439834
C            4.60778838346554        2.62338776260666        9.98444176632489
H            5.00515421248148        1.72492745526723        9.52684373656508
C            4.74720071520005        3.84905380682920        9.34736337270219
H            5.25399590045403        3.90937790608436        8.39151177469022
C            4.24112199479853        4.99851433738812        9.93996380386167
H            4.35145522584574        5.95922107594793        9.45042831578022
C            3.59842282535889        4.91869543831529       11.16487276273106
H            3.21350652869830        5.81900991867155       11.63189882001646
C            3.15435978116106        2.16985624361022       14.24312419238080
C            4.52842475833279        1.93339816782048       14.35859817432148
H            5.23139027155403        2.61138375071034       13.88730426716460
C            4.99763649149230        0.84377831058783       15.07472784010814
H            6.06475302060916        0.66929926949707       15.15022364065510
C            4.10351108038804       -0.01686151719668       15.69712206179378
H            4.47070935476370       -0.87212590896750       16.25221642227028
C            2.73865677436538        0.22113234345780       15.60831319903243
H            2.03686045200547       -0.44408778405387       16.09809389756679
C            2.26677703145798        1.30994545323962       14.89227100290879
H            1.19939558719075        1.48972027948660       14.82941147177791
C           -2.19057852864140       10.01413581875490       20.04559828178049
H           -2.28837322436379       10.66795951754218       19.17467817895509
H           -1.78250906945837       10.60922499413151       20.86672643349877
C           -3.55088795606059        9.43744082386575       20.43154797395943
H           -3.43332640693407        8.79148847309605       21.30687212101956
H           -3.93026426811395        8.82218656798514       19.61029456909420
C           -4.54225215836687       10.55544574259892       20.74325795293674
H           -4.17935736555533       11.16823244286125       21.56912783601230
H           -5.50612571458797       10.13131584313674       21.02240070067042
H           -4.68294436253280       11.19474695678710       19.87099779813954
C           -2.46399732499883        8.62193701651193       17.20955987651358
C           -3.07098572349614        9.77099834282928       16.69503619882055
H           -2.58067486807301       10.73297437869133       16.78970740686591
C           -4.29880933384015        9.68866292594080       16.05574086452006
H           -4.75931149830901       10.58761816660533       15.66287397760445
C           -4.93580395750837        8.46281283641079       15.91732397249492
H           -5.89448886198338        8.40289097678328       15.41586054454289
C           -4.33945522975041        7.31269566787880       16.41743601733652
H           -4.82887262197240        6.35185545021964       16.30774620090260
C           -3.11098418121691        7.39207069610696       17.05333111951614
H           -2.64096760544068        6.49125423042224       17.43341856626891
C           -0.02605755359703       10.13366323469483       17.47115425153453
C            0.07395774759903       10.36588894031120       16.09517711993509
H           -0.40920370680315        9.68842486533035       15.39982917843700
C            0.78920916431768       11.45104548441567       15.61436327582621
H            0.85243563058461       11.62236595131124       14.54593785980031
C            1.42647798838704       12.31106168715998       16.49853408757858
H            1.98083380045618       13.16288866210275       16.12232418927318
C            1.35342001572516       12.07682617342049       17.86498883811138
H            1.85491067364582       12.74147173191557       18.55900632261604
C            0.63818175849943       10.99259204805593       18.34848502236220
H            0.58782197286002       10.81572427346983       19.41702609459707
C           -0.60221172981511        9.08167952595220       22.43563347086090
C            0.13829500497063       10.23865094578953       22.69895061105927
H            0.89893829293588       10.55762210198771       21.99362110672995
C           -0.09194491438079       10.97429215867688       23.85002722731770
H            0.48423755126780       11.87221319420770       24.04074690443626
C           -1.05528923157322       10.55639910882606       24.75903797241213
H           -1.23376158586472       11.12980984375815       25.66103564726818
C           -1.78382621719131        9.39991387338768       24.51574158862462
H           -2.53068091173980        9.06792186308741       25.22750065949315
C           -1.56034966683833        8.66353714211193       23.36273302156222
C           -0.97850192563184        6.52791571699900       21.18094428762325
C           -2.11188730037604        6.05764228477852       20.51880193462739
H           -2.65640486685318        6.71584766306367       19.85289271129854
C           -2.54722898899913        4.75456030839781       20.71053524280725
H           -3.42850311189271        4.40119460013282       20.18769614166016
C           -1.85862748912304        3.90712718494437       21.56674569987814
H           -2.19947220531746        2.88916697800945       21.71468685084701
C           -0.72940739716333        4.36554143201180       22.23452663783433
H           -0.19308497544685        3.70979534454832       22.91110479780327
C           -0.28759715677399        5.66290344335673       22.03525348875750
H            0.60424055622092        6.01506225695128       22.54465211689297
H            8.50790650691879        7.75823961016715       11.72441863485803
H           -2.12815749118398        7.75798731879158       23.18266341771741
