338
 energy: -537.358758853595 gnorm: 0.000035523828 xtb: 6.5.1 (579679a)
Au          13.67003524399989        2.66811290187892       45.30983646560207
Au          15.96327168225770        4.26806493258451       45.42009852236777
Au          11.43112970523911        0.91732417702483       45.32494044230979
Au          16.25075531887454        1.60047431083288       44.83212266515320
Au          13.96090797018520        4.43168354478406       43.34631780359474
Au          15.67258800554310        2.32031067416029       47.36184182027549
Au          11.49510574760013        3.51140444314835       44.08767442345340
Au          12.25017437725396        2.09379213485169       47.69847077647889
Au          17.08987257004656       -0.47220673604507       46.77335884346802
Au          13.80752563115063        0.20246960467059       46.60795425348582
P           11.03558134879711        3.49554305741866       49.18642908602554
P           19.27631446982969        0.30443983297132       46.65990023283137
P           14.55777485021159        5.64080749271101       41.38034789681507
P            9.24355609262382        3.63286546390976       43.37667684472724
P           17.03622771438528        0.26539118689596       43.00584669498328
P           15.49519275652376        2.57893931785236       49.74686830495585
P           16.58434560145995        6.56120685309743       45.22972515075656
P            9.80373213177507       -0.59789887192299       44.41058351696984
C           14.09444571581268        1.54264761080734       50.28911661263820
C           12.94609389801481        1.90476828664961       50.97436432348285
C           11.96415572055476        0.91405116001123       51.28637042379307
C           12.11250638495049       -0.41276562987178       50.79644207275993
C           13.28492565538106       -0.74754749895524       50.08086072266262
H           13.42508885068974       -1.76441359663273       49.73343753231939
C           14.24681570239562        0.19463654673394       49.85849355947941
H           15.15942897803998       -0.08077538592068       49.34204516611310
C            8.12983645193214        2.74680009120859       44.51589408085174
C            7.96003036679438        3.43666729364588       45.74725420197920
H            8.50424809783638        4.36260779599823       45.89993365649205
C            7.11749792151920        2.97550952472245       46.71472187628207
H            6.99381475182563        3.52532811461136       47.64104509259964
C            6.36636795514865        1.79506186568612       46.50408111810631
C            6.56675448142203        1.05917750337675       45.30471851888944
C            7.50027377310610        1.52793222110964       44.33056366562558
C           19.65802951085785        2.04480082646118       47.05482607602381
C           20.32616203465211        2.41881412688373       48.22163360536931
H           20.61321938163679        1.66495829735117       48.94490956719918
C           20.64244997595371        3.74958292904820       48.45799177028979
H           21.17445584669125        4.02052868501811       49.36241352740038
C           20.30080917199493        4.72639318876044       47.53452868974095
H           20.56060711836070        5.76297282456050       47.71307538392756
C           19.62720274336356        4.36778439570754       46.37382746400824
H           19.36545793003851        5.12011280639821       45.63934701714792
C           19.30344380261177        3.04185063594110       46.14280178250108
H           18.79082681738162        2.76711367428759       45.22848693325179
C           10.87713556704188       -1.93595840469154       43.79336346801004
C           11.93290122050535       -1.58154554654484       42.94538551083158
H           12.06537008465091       -0.54259708120592       42.65811382158152
C           12.80004750129938       -2.54544188008626       42.45854740329942
H           13.59137055066416       -2.26082470040444       41.77592011785126
C           12.64935257487937       -3.87499995961159       42.83151597877306
H           13.33277487030386       -4.62563109802431       42.45247371323239
C           11.61804063711699       -4.23536245716279       43.68546583489621
H           11.48908594380217       -5.26942832389175       43.98309038066155
C           10.73620334307444       -3.27565267341286       44.15954600569740
H            9.93349233596818       -3.58064031893548       44.81996400261448
C           20.17105654490046        0.04643589303226       45.09538309002173
C           21.36056133770722        0.79263917650539       44.87768642486650
H           21.63707394289670        1.55891542010533       45.59168241201731
C           22.15703756222403        0.56266761326229       43.79333356255891
H           23.05851788880645        1.14629506620892       43.64551131791071
C           21.83670165714390       -0.45631880408879       42.86787995497638
C           20.64595097802766       -1.20863480247565       43.06017022385450
C           19.79614772359787       -0.91560913587561       44.16887511504704
C           18.46591012714102        0.82849720175635       42.02483173542423
C           19.11157500145981        2.01069297089843       42.39052257477436
H           18.76511287776816        2.56040692571936       43.25794673958366
C           20.19006211693004        2.48563079410822       41.66048339411346
H           20.69440004675286        3.39173791065118       41.97498713197283
C           20.62164800938171        1.80058550652552       40.53363237695468
H           21.46173060540040        2.17209327928898       39.95931568470902
C           19.97246642146150        0.63586031335445       40.14464575344476
H           20.30366419905230        0.09646411321082       39.26517901408835
C           18.90699387437223        0.14856412305115       40.88487684427152
H           18.42165742522361       -0.76933098149676       40.57731730615349
C           10.84221671739874        1.20466210829038       52.09881121372347
H           10.74620938841786        2.19431896532573       52.52920864375919
C            9.89318422711044        0.25026138266296       52.35705309633116
H            9.04281828056468        0.48853343542328       52.98512280036667
C           10.01153483980748       -1.04090324917780       51.81449910749482
H            9.24492510568494       -1.77883169072557       52.01910470858824
C           11.10550002849088       -1.36879727230379       51.05693646652842
H           11.22481954302737       -2.37102472192525       50.66021631160368
C            7.68120389891154        0.71022709961533       43.10014816267329
C            6.77648866380427        0.91722087616412       42.02115377532232
C            6.90459300263145        0.13562045002836       40.84030701848647
C            7.92063034215240       -0.84434893104213       40.77908071822753
H            8.01987833511659       -1.44569870097372       39.88252905553253
C            8.76461316043605       -1.04492969094390       41.83440543876812
H            9.52866340173832       -1.80930589808310       41.76876664372314
C            8.65495030882355       -0.27717915407814       43.02142755204162
C            9.47095621959273        2.81880709276368       49.82240385412484
C            8.82224920334456        3.35783509406390       50.93897545661054
H            9.25293301986519        4.20525080100510       51.45988695082239
C            7.63763553481889        2.80258075142392       51.39690804611091
H            7.14515523138179        3.23001442849122       52.26227410912592
C            7.09024165829780        1.69787465039414       50.75789047247891
H            6.17186952084174        1.25643502963006       51.12596583652952
C            7.72434934742587        1.15870466131429       49.64698072869837
H            7.30010539653807        0.29994093187902       49.14014104420010
C            8.90162850115652        1.72016899777790       49.17872691834696
H            9.39271446168354        1.30391628514099       48.30611237936609
C           22.67558877050977       -0.75064884517145       41.76901924231971
H           23.57801175707741       -0.16547116935266       41.63263699179587
C           22.36118796978767       -1.76281880183102       40.90100369455256
H           23.01217823026657       -1.99054826652452       40.06538332260262
C           21.19236225959535       -2.51988143523124       41.09494840663883
H           20.95893872892421       -3.32532238601819       40.40853672450740
C           20.35154569831820       -2.24764766231441       42.14227379181705
H           19.45563828943021       -2.84069313281296       42.28262094856080
C           18.03939745776994        6.88599389994153       44.18792510944186
C           18.32669582767771        5.97955069103223       43.16349531334487
H           17.66252707101323        5.13691159288854       43.00017422189107
C           19.43723018327443        6.15404354692530       42.35473226840333
H           19.62968928596308        5.45707735942073       41.54748522235231
C           20.29865858928401        7.21978771639874       42.57924860733399
H           21.17129199172148        7.35388091235743       41.95133964744527
C           20.03968259345604        8.11065711503876       43.61160557155358
H           20.71118375673749        8.94132383615634       43.79400843013800
C           18.91840025849066        7.94947064998237       44.41056578036233
H           18.72497678660540        8.65622639449230       45.20854228729349
C            9.08407750068544        3.02374512428940       41.67250907964524
C           10.00556784998522        2.07337808768069       41.22377023476520
H           10.73703566679290        1.67170177062824       41.91811630162692
C            9.98534157335954        1.63266480891673       39.91091338401866
H           10.69566146979956        0.88225396087269       39.58334580623204
C            9.05807745116781        2.15310605752323       39.01763090581107
H            9.04606959863988        1.81383536389673       37.98877433052618
C            8.14781976326257        3.10897078557968       39.44679356852519
H            7.42184420632598        3.51801175228507       38.75406598555627
C            8.15863852893236        3.54379067687019       40.76332746376844
H            7.43853721826846        4.28552440764832       41.08797258815067
C           19.87280545634810       -3.39054699161792       45.61773185520878
H           20.73070134414255       -2.72929494082171       45.58899737636435
C           18.67573263635880       -2.99480253921484       44.97199867739188
C           17.56327789576465       -3.88106417232266       45.00365853134845
C           16.36558782441473       -3.49329662586916       44.36158716469487
H           15.51236843459527       -4.16221427298922       44.38040545735889
C           16.27030485798330       -2.28418188349178       43.73552713672125
H           15.33101142262162       -1.98778010051607       43.28412084609096
C           17.37625468401142       -1.39900092110263       43.65903609307393
C           18.56536080037276       -1.74576708114450       44.29216307291518
C           10.49119995345874        4.93675811713815       48.21434002950828
C           11.26154628547542        5.30318667689805       47.10839822074681
H           12.20737081064967        4.80467669363590       46.92796120453146
C           10.82866471050958        6.28149209664694       46.23000157297380
H           11.42966560285650        6.52190575370912       45.36100873525956
C            9.62819408104529        6.94059426932110       46.46129146633185
H            9.28713820304814        7.70418040188810       45.77220539155354
C            8.86524959275641        6.60818586475774       47.57176719618850
H            7.92836911101888        7.11917292496087       47.75983945092702
C            9.28453251298096        5.60573178912957       48.43497070645522
H            8.66014629931283        5.33434694444427       49.27801890785212
C           15.15056544830495        4.38423448932491       40.19797387883581
C           14.39097982719381        3.98352550098673       39.09627229464682
H           13.43378621900898        4.45079065542509       38.89872849599139
C           14.85259005607488        2.99585488347646       38.23868501361640
H           14.24978591049497        2.70255197608699       37.38715565717916
C           16.08264943334751        2.39563793309368       38.46278225480278
H           16.45025952940330        1.63327517880927       37.78630886951721
C           16.84035648570437        2.77386248787636       39.56289713664922
H           17.80180217614831        2.30912243615826       39.74211631287191
C           16.37237363471698        3.74431279109380       40.43346557772726
H           16.96618993810781        4.01876552601293       41.29888348029638
C           19.95521732922179       -4.59123672463628       46.27085615027353
H           20.87679558548322       -4.87858305860660       46.76340186599921
C            4.67058073248561        0.21754808273060       47.20376112288665
H            3.93180408158274       -0.11614910455675       47.92268688056184
C           18.85286864311155       -5.46400186941108       46.30158163655489
H           18.93821223380026       -6.41325294676537       46.81699249595570
C            5.77994220936050       -0.09751523981421       45.08766918652679
H            5.90050216025059       -0.65069568738451       44.16394732387564
C            5.40766471507052        1.34824726384410       47.44128530142159
H            5.25283544028402        1.92980691472997       48.34322993419064
C            5.74660835083719        1.88876475883729       42.08099675979573
H            5.63151230002993        2.48092615006524       42.98162783675919
C            6.01575664843494        0.35717549995345       39.76343838369883
H            6.12423029109160       -0.24336131251353       38.86733643030740
C           15.16114179242673        7.55745985573658       44.67218346621436
C           14.18930955513741        7.74350181386062       45.69173186558601
H           14.38333035544768        7.32514596501380       46.67351286617900
C           13.04818355239762        8.45820919193849       45.47403190821176
H           12.34732847480123        8.63057164481861       46.28302294612043
C           12.78254869278539        9.01000155503034       44.19931543725799
C           13.72298909377634        8.80361936324199       43.15353767964179
C           14.91068894811144        8.04822838862155       43.40011022610757
C            4.89852810677442        2.07760936372085       41.02223277137117
H            4.11301900210271        2.82181732739088       41.08231668467300
C            9.32662143837211        6.39166379631240       43.11355690375677
H           10.40029112437001        6.24928998685184       43.05496274006115
C            8.79550059961471        7.66705517046265       42.99993605869555
H            9.45773589901615        8.50980010871892       42.83881013211130
C            7.42377567139111        7.86002878340638       43.09201804560709
H            7.00872673277378        8.85708336861528       43.00526508053316
C            6.58623005423743        6.77231527140414       43.29945999202848
H            5.51514383146097        6.91767394154911       43.37663893799033
C            7.11348957504240        5.49465843827320       43.40419240821651
H            6.45156061161717        4.65217512909269       43.56815366288667
C            8.49315093654975        5.28815934491260       43.30815840945029
C           14.52725180890974        5.12792163469262       49.29791877438557
H           14.08655495288593        4.67901919619589       48.41313418597674
C           14.35683315694885        6.48046930121578       49.53926305785217
H           13.77295028437181        7.08137341388164       48.85170243801327
C           14.93606063702581        7.06391693406842       50.65860040546082
H           14.81280752499321        8.12431560230386       50.84298884014132
C           15.67485345142903        6.28390411474576       51.53741778743245
H           16.12764748373103        6.73250627326197       52.41373156540865
C           15.83113339996502        4.92534469817339       51.30659740956964
H           16.39722190230601        4.32522254546797       52.00894268692939
C           15.25169559896373        4.32635787517558       50.18521126637600
C           13.46982625201851        9.41098378603273       41.89984396031454
H           14.19545199446797        9.29799187333346       41.10397053264262
C           14.76195848236282       -1.06030973665518       39.82683326503894
H           14.77158880309008       -1.87469275947546       39.11211685469699
C           15.73932905206713       -1.00041679750710       40.80980421338655
H           16.49056072404636       -1.77953763641783       40.86350509714923
C           15.74836199939805        0.04729265468771       41.73564104414987
C           14.74904174955621        1.01855881402427       41.65198285045300
H           14.74358870147507        1.84030381394211       42.36035721737392
C           13.76814551075719        0.95467341030677       40.67621977092006
H           13.00719877809090        1.72540641115798       40.62892824737970
C           13.77598268810133       -0.08450290569944       39.75608943852136
H           13.01515629727038       -0.13500858351215       38.98620320491187
C            4.85678740536232       -0.50648919486570       46.01393277875000
H            4.25711437840602       -1.38967041628337       45.82768290391390
C           12.33802056156365       10.15306531552412       41.68873641801135
H           12.16383358084478       10.61232750163329       40.72272964834855
C           11.62360842971198        9.78035162269955       43.95393102013236
H           10.92023403289362        9.93355813000487       44.76509395376676
C           15.89171220637740        7.94915358616238       42.28285020387893
C           15.82949549776176        6.95208977384152       41.31869424451239
C           16.75608814104197        6.96994911393828       40.24450694558831
H           16.70454008004850        6.19325066288305       39.49167903451208
C           17.70279161813122        7.94858261660020       40.13852108713992
H           18.39890279133900        7.94443751917496       39.30749040764250
C           17.78123105084332        8.98469034561836       41.09600280757080
C           16.85610770402725        8.99314904224013       42.17571739872489
C           17.01536028983999        7.31478030311492       46.82808655285155
C           17.46127353457137        6.48121303318101       47.85590247550029
H           17.48765987822337        5.40793351452503       47.69944957521803
C           17.86760857581032        7.00939016908477       49.07079544328850
H           18.21593164874325        6.34711600239792       49.85533810432955
C           17.81767723722965        8.38050442186561       49.28220408058040
H           18.13441121229483        8.79517694030140       50.23177624727155
C           17.35285004890923        9.21826678642404       48.27704997534291
H           17.30253674953288       10.28814375506687       48.44174255159699
C           16.95577792769890        8.69325811886468       47.05709633572920
H           16.58759083357955        9.35447115734522       46.28094033981911
C           14.10967101575729        2.93946503663039       53.42039286053830
H           14.31131755985373        1.92542587453355       53.09482669535052
C           13.12589174196187        6.33509173313429       40.49548422698260
C           11.85668692593273        5.81418214820860       40.75541679729795
H           11.74448838205780        5.02846194965662       41.49571153920206
C           10.74498298729914        6.27766118473193       40.06987982345381
H            9.76854483939674        5.85629020441762       40.28159433025537
C           10.88536978026517        7.27733445046215       39.11729750963236
H           10.01616763659763        7.64698007877657       38.58646565881286
C           12.14345269231906        7.79514100471259       38.84023909181117
H           12.26005791620292        8.56656594743946       38.08817975628794
C           13.25815524833212        7.32442978745988       39.51681369631321
H           14.23832115001483        7.72191243771472       39.27959918204750
C           14.66338070375639        3.41405958093922       54.57994936763838
H           15.30930770589574        2.77743580614673       55.17324491395692
C           13.57355654891628        5.54035456414416       54.28245344217181
H           13.35824071212671        6.54961146170726       54.61478456121537
C           16.87604626207355        2.03169323226678       50.79672829893020
C           18.09458893913862        2.70929608772574       50.66970838264254
H           18.17687664310038        3.54086758670473       49.97695520590932
C           19.19163283721952        2.33299121439029       51.42729661458412
H           20.12141389501748        2.88240008560058       51.33811686006143
C           19.10047462642767        1.25782367583537       52.30183390261806
H           19.96088153952908        0.96231701961846       52.89012201556582
C           17.90352820365903        0.56654977130762       52.42017708372368
H           17.82411953684022       -0.27276615888681       53.10105883457928
C           16.79704281872587        0.95067402658543       51.67731567316850
H           15.86681608206352        0.40751904547109       51.79235432513813
C           17.68437910437720       -5.11798892262174       45.67645710456520
H           16.83432847786513       -5.79129571814176       45.68537651174208
C           14.39527202017092        4.72477016364412       55.01474829301605
H           14.84019428851945        5.08124718096489       55.93616098627317
C           16.92643713305332       10.05246242022047       43.11454522879515
H           16.21793890614311       10.08122266018576       43.93427698733084
C           17.87019539040955       11.03789060372127       42.99287300259261
H           17.90928382371182       11.84318760470853       43.71708324485834
C           18.79205704266587       11.01749799685400       41.93088251389901
H           19.53194370164345       11.80505758834919       41.85186091960435
C           18.74691814372563       10.01291519588874       41.00103072554789
H           19.44865306208204        9.99221243064736       40.17487282355287
C           11.40213531010519       10.33756715057921       42.72124542225758
H           10.51900650465782       10.93903843674709       42.54110604208812
C            5.03489769861107        1.30906493986244       39.85187246909550
H            4.35456356992933        1.47322025081771       39.02470933115849
C           12.98921861053057        5.08285996102552       53.07917931061353
C           13.26400139787905        3.75955732606205       52.63390115482465
C           12.68510306560447        3.30090871446517       51.41952443618513
C           11.84799168952533        4.13067850892363       50.68651050652572
C           11.60001375428265        5.45116124523509       51.13469192299385
H           10.96804815523381        6.09926405300059       50.53886504851661
C           12.14980960074126        5.91048169781937       52.29849838079890
H           11.94822338289664        6.92138040041795       52.63424072476286
C           15.36312627820014       -1.51642661413505       46.90398528804335
C           13.51122885549401       -3.39668460606199       47.07092759294424
C           13.79635503358310       -4.73910596507400       46.79993153318075
H           14.81308050618964       -5.03596337201371       46.57499624079534
C           12.78354810059989       -5.68367729299507       46.80321269822510
H           12.99992528100236       -6.71968946866713       46.57154038822856
C           11.48053254620474       -5.29796497630228       47.09949342374507
C           11.19437681012536       -3.97282734888116       47.41547655805508
H           10.17926159328630       -3.69017272398287       47.66524018932277
C           12.20046851697303       -3.02744390052827       47.39642062314740
H           11.97635902832511       -1.98904224415095       47.61375040296194
C           14.51111805452927       -2.39391773521934       46.98756501420694
F            9.70632584958823       -6.09369163829474       45.81712178668636
C           10.33403554110317       -6.26783219199079       46.99764282730833
F            9.42491371659428       -6.05436402872227       47.95325448050659
F           10.72348513038159       -7.53465789085072       47.06309734711714
C           20.22340542741496       -0.62326742947172       47.90173212522895
C           21.53767104837098       -1.05539932565741       47.70904160601062
H           22.05045648397592       -0.83695464472277       46.77952665138483
C           22.19368527638899       -1.76422065083310       48.70403149265008
H           23.21164959930692       -2.09766084468036       48.54014599182725
C           21.55347515965331       -2.04476313117362       49.90324273396254
H           22.06940021278724       -2.60008215205858       50.67738346769275
C           20.24895666120165       -1.61505278858861       50.10804867426693
H           19.74216824770003       -1.82976754259250       51.04181580871212
C           19.58724229334516       -0.91456282509477       49.11320219544402
H           18.56480996148431       -0.58571210764084       49.27248282088404
C            8.81410114590362       -1.43462888016559       45.68474872564012
C            7.81633518021371       -2.36104504683916       45.36322998590109
H            7.57020356543015       -2.54867358173330       44.32437347479546
C            7.14419411998107       -3.04244165637042       46.36620975994713
H            6.37729679662723       -3.76153860965388       46.10407888059535
C            7.45526228509424       -2.81237244392514       47.69980287575279
H            6.93132460610307       -3.35021674601983       48.48070082599565
C            8.44687281499236       -1.89738127050091       48.03059332544684
H            8.70848541507045       -1.72378849043641       49.06842121506293
C            9.11851503165808       -1.21323157323849       47.02783607818726
H            9.90313556526803       -0.50915243704798       47.28434108290717
