315
 energy: -506.768626086498 gnorm: 0.000717116975 xtb: 6.5.1 (579679a)
Au          15.87833518612659       13.10780792524072       24.23985898494461
Au          14.52576422922609       11.47709034369021       22.46756969405465
Au          16.49125640258262       13.45693694222272       21.61867341332911
Au          13.91282105035711       14.44054000428623       22.72924769077504
Au          13.32629900868039       12.43090010407730       24.96513952365497
Au          15.76716234704163       10.51702941213197       24.93860348616770
Au          18.05253225773914       11.66014352889124       23.36561429373597
Au          18.23493784846449       13.80848598833105       25.28041339347270
Au          16.53706774090531       15.62726408038872       23.62972936645970
Au          14.45135400850752       15.04343874828446       25.64246947790491
Au          15.92159384501767       12.80566443815296       26.88223765190963
P           13.65222230310532       10.23809754583846       20.61721597066197
P           17.39620824373154       13.82279436455933       19.44614460715408
P           10.98684171558208       11.94157183575849       25.24683267725603
P           16.10002441404604        8.18590336746991       25.39779950307951
P           16.04845429168155       12.31963162973092       29.22204231829541
P           20.26337916343581       14.56288311619378       26.26475571797669
P           16.94523280608929       17.90623084361198       23.07937982411719
P           13.28991164333631       16.73904972395339       26.91324251863306
F            5.72173702315686       16.54014790511707       18.37200494615270
F            6.98440302329437       17.22414480792552       16.76005973338596
F            6.47254056181011       18.56010164930466       18.37234761217180
F           22.07911306550121        6.38487089118473       16.50942228966041
F           22.17159076654969        8.31628621908306       15.54892810574401
F           20.31298156008078        7.22674451208587       15.60400033065609
C           12.35316634419250       15.24050783686745       21.66475781975042
C           19.28415380553974       10.59337518073042       22.14109996134456
C           19.73680215954174       10.05258329750971       21.15265430661632
C           11.38852604008595       15.61292992756307       21.02996871671932
C           10.25011962821820       16.03772801707568       20.29326122520506
C            8.97007804529421       15.93484043487187       20.85365966911952
H            8.85575967274493       15.53449538558955       21.85447517087799
C            7.85681100689292       16.33348927857443       20.13692781197793
H            6.86624398106322       16.24989641165314       20.56881958063996
C            8.00622460123241       16.84022205846671       18.84791991915125
C            9.27366252633885       16.95446895936023       18.28211921482470
H            9.37989842193245       17.35189939977707       17.27951015274246
C           10.38672098174146       16.55514898440420       18.99957319921051
H           11.37473562098493       16.64217670294247       18.56109509905196
C            6.79416818523173       17.28877410091243       18.08253429871566
C           20.23603841586869        9.42368835533360       19.98184675127122
C           20.45652417248892        8.04108629552056       19.93922853358672
H           20.30890922657384        7.44796264914926       20.83482033816674
C           20.85330560028371        7.42994034294774       18.76334893196693
H           21.01389369175572        6.35868812936118       18.72832331855967
C           21.04561322805347        8.19348814740279       17.61448031670458
C           20.85474978426945        9.57317342684736       17.64966471803146
H           21.01407721975821       10.16019190250135       16.75253962103528
C           20.45774805471453       10.18281426676640       18.82478456474526
H           20.30137078685305       11.25499013254455       18.85232362201623
C           21.41276554833058        7.52841782757626       16.32003401140559
C           11.95970853609068        9.56393835789100       20.71310410130487
C           11.13503249702842        9.41378397389150       19.59626864928705
H           11.49932320557437        9.69129761320806       18.61363485033505
C            9.84499995753132        8.92476263737943       19.73735513574788
H            9.21385127903483        8.81624444551269       18.86279403423874
C            9.36068014013241        8.58018880174114       20.99181486692019
H            8.35099762054045        8.20130894414092       21.09959431898181
C           10.16899082950925        8.73228333735343       22.11011625253507
H            9.79188998236495        8.47641511127609       23.09373013072452
C           11.45608625444721        9.22736958112796       21.97204448118359
H           12.07479177561836        9.37380384577001       22.85117939653861
C           14.69724275071811        8.82299562033823       20.15476912407359
C           14.28667677633461        7.80373476951213       19.29171106333531
H           13.28326706451822        7.81314965835865       18.88101152020620
C           15.15321950543300        6.77149028847987       18.96490017306354
H           14.82573504680795        5.98954073070705       18.28939849792400
C           16.43455790963829        6.73640233142191       19.49995940175229
H           17.10939524899536        5.92867708161989       19.24170961308469
C           16.84479974420954        7.73246928463860       20.37590465802975
H           17.83738990011842        7.70497367533819       20.80949285604002
C           15.98139732761061        8.76606921549283       20.70081208993106
H           16.30408407630887        9.53907122275311       21.38945036353132
C           13.57986393265260       11.28669632243311       19.12990018303792
C           13.13469349811832       12.59967922346716       19.30913142202934
H           12.87010119456714       12.94607233683524       20.30159710477884
C           13.03560423863157       13.46850413570803       18.23557862536761
H           12.67990515142455       14.48002620511163       18.39459277797329
C           13.39232823033081       13.04145885830063       16.96348808720770
H           13.32158850855131       13.72044705807206       16.12169431495052
C           13.84521943577503       11.74326907694162       16.77470080602419
H           14.12999957728923       11.40629405808587       15.78458668030609
C           13.94131654493541       10.86979230043236       17.84830629469770
H           14.30833975857801        9.86260043548042       17.68712090876584
C           17.22892217972011       12.52681037044499       18.17709369859629
C           17.05125421856703       12.78329537904975       16.81684165148324
H           16.94380429587017       13.80371915678669       16.46665305905127
C           17.01187230923124       11.73589791753217       15.90754737380926
H           16.88310752340131       11.94717377241746       14.85215916526472
C           17.14410019696292       10.42418794131622       16.34357056309573
H           17.12151326785978        9.60915810752861       15.62975487941735
C           17.30175572437633       10.15887775793904       17.69747691933894
H           17.40302275327178        9.13719414465236       18.04508352762653
C           17.34014828229491       11.20245160002500       18.60817903466456
H           17.46782171613512       10.99345444831409       19.66513808520000
C           19.20446788975633       14.02756098045098       19.51969124683231
C           20.03604419627381       13.89634985402342       18.40382102716514
H           19.60776269217602       13.68307587188322       17.43084465757650
C           21.41106994134813       14.02139580515088       18.53430446368489
H           22.04424895652257       13.91855923624894       17.66052343222107
C           21.97678355360462       14.26429637848114       19.77902935904989
H           23.05244414089595       14.35158931382555       19.87957393346338
C           21.16173635558841       14.38125066804077       20.89671967459668
H           21.59703326125042       14.55477235868905       21.87421858419401
C           19.78738689376787       14.26443199039638       20.76538233562528
H           19.15418118399464       14.34681900259340       21.64149730822412
C           16.75218247484348       15.34020481502651       18.67485187783482
C           15.45947154000457       15.72884367560999       19.03597876466228
H           14.90246815341289       15.12706023191440       19.74532434763026
C           14.88466186919374       16.87005769783358       18.50133902793382
H           13.87958836023116       17.15465380910689       18.79198782446542
C           15.59831914161537       17.64463838646836       17.59665996014137
H           15.15314664074065       18.53898549681004       17.17638429391595
C           16.88731342408555       17.27448950562167       17.23701090881834
H           17.44948881003112       17.87963078620118       16.53488922632766
C           17.46502047555014       16.13346535656337       17.77427582956754
H           18.47871165040647       15.86585683907842       17.49872350524767
C           10.06469622557536       12.84768502159073       26.52763341682629
C            9.89393706447151       14.22557197072435       26.34903100089839
H           10.26540350752203       14.69892117606148       25.44569500939867
C            9.25008528887213       14.98615087255890       27.31066585116965
H            9.11946418226089       16.05137539096179       27.15660058299476
C            8.78001673835722       14.38665480986665       28.47220246825569
H            8.27904537986811       14.98227847352287       29.22637982600045
C            8.96098779274447       13.02445871449936       28.66813136771101
H            8.60036641979271       12.55299402746318       29.57532044426788
C            9.60259801479016       12.25855421522025       27.70506901493449
H            9.73713758596824       11.19505286418069       27.86735018110648
C           10.67643423730636       10.18025593735190       25.60109073471484
C            9.40328192014767        9.60591878068120       25.55842443810521
H            8.54193779653740       10.21823953654778       25.31672796510143
C            9.23320691718794        8.25426295059967       25.81792762251202
H            8.24013295945192        7.82140197460989       25.78115160238379
C           10.32883316639436        7.45691768441833       26.12394388202133
H           10.19277961357732        6.40073504198084       26.32534826213095
C           11.59827317556036        8.01542977844018       26.16799744537705
H           12.45781580580401        7.39913943808728       26.40614287838504
C           11.76918350575787        9.36614827779419       25.90479681862933
H           12.76326081195579        9.79928059842346       25.92966067268153
C            9.99354666350053       12.26124460556543       23.75177829249450
C            8.61937166623012       12.51590191041769       23.79123746059615
H            8.10237486082734       12.55677403238456       24.74323154785989
C            7.91145252922144       12.73089744991354       22.61896598502048
H            6.84636500042213       12.92720711743626       22.66461367037549
C            8.56073548408228       12.69844126927471       21.39143968836557
H            8.00450193288901       12.86919977415850       20.47722897781453
C            9.92639589793967       12.45850729921579       21.34101070585571
H           10.44278332448999       12.44236495696845       20.38812420855069
C           10.63435077698879       12.24532167301240       22.51231338248889
H           11.70254571514027       12.06850524823796       22.46800182675989
C           15.42503861035938        7.50660856122721       26.94470815757469
C           15.56460650518585        8.27989174475874       28.10014012175594
H           16.08784919982611        9.22855148967442       28.04381318580552
C           15.04060859277709        7.84917539280007       29.30771824350044
H           15.16465147909370        8.45785481235152       30.19632139679286
C           14.35079999882480        6.64602766748373       29.37475740185051
H           13.93174523944762        6.31213230223305       30.31684859642041
C           14.19681928484368        5.87383636805630       28.23137892235182
H           13.65873076912534        4.93399928409756       28.27933662442506
C           14.73118184545956        6.29752080955776       27.02286718204603
H           14.61374541162273        5.68320633857283       26.13753383119097
C           17.88042059895322        7.83005618637237       25.46124973039702
C           18.54559829434495        7.38298015898414       26.60330144585976
H           17.98609100740795        7.14891765574644       27.50195285241112
C           19.92551764605357        7.23455725004717       26.59612736869441
H           20.42991285575863        6.87860791838600       27.48755697028722
C           20.65828198601769        7.53778226861610       25.45643696191838
H           21.73551385458002        7.41785959066311       25.45597400733277
C           20.00631882839702        7.99278215623778       24.31732018632439
H           20.56817504400907        8.24437598866555       23.42509217042832
C           18.63001503295227        8.13891886590873       24.32108990354893
H           18.12828339126614        8.50336390528054       23.43168653554285
C           15.46469126323085        7.07865982885105       24.10075060175352
C           16.18608139833475        6.00887656027572       23.56777684009682
H           17.17850287127870        5.78556824759619       23.94187477017399
C           15.64119312813392        5.23092983694795       22.55724758955551
H           16.21346626999635        4.40654024262876       22.14745452784075
C           14.37058049234064        5.50452306768781       22.07012475524057
H           13.94942351308041        4.89653040807197       21.27794774700097
C           13.64381559524242        6.56587866358041       22.59285919613063
H           12.65317741257099        6.78872524933293       22.21265926475912
C           14.19099733195666        7.35070757407699       23.59426489295881
H           13.62971643395485        8.18916231610830       23.99316091569426
C           16.38298627476287       13.61567105507477       30.45629181176951
C           17.58150317660230       13.70725633907426       31.16522337209369
H           18.35018398725014       12.95512824280900       31.02852414189787
C           17.79155929555843       14.75193112413461       32.05368396813750
H           18.72368612282097       14.80818853847793       32.60423342034135
C           16.81532190557608       15.72166752621009       32.23931933112735
H           16.98128445181415       16.53333643056376       32.93797598148451
C           15.62596626117140       15.65101790717298       31.52302520695153
H           14.85910941376981       16.40529563414839       31.65984840897979
C           15.41602705061804       14.61059224902722       30.63328861393710
H           14.48917424934334       14.55555297744496       30.07366735398367
C           14.50659585327942       11.56158786363584       29.82909732241086
C           13.68197492731024       10.93078452622941       28.89495937692340
H           13.97747222070086       10.91262003558154       27.85176873658845
C           12.49382509867037       10.33332389019030       29.28332189774248
H           11.87094766026028        9.84230924638156       28.54415980429475
C           12.10467169587983       10.36696756209247       30.61586251346014
H           11.17344938450263        9.90458130764116       30.92173296409970
C           12.91038236773193       10.99928036564388       31.55377254667832
H           12.60844249691364       11.03223094596940       32.59433901695278
C           14.10260562459871       11.59227869954561       31.16618711097845
H           14.71784374216754       12.09154037180882       31.90595391846054
C           17.31961216153101       11.05541961976574       29.54766383313383
C           17.32084718158663       10.24758473855735       30.68829962330886
H           16.55263146085359       10.37657999815541       31.44259819403351
C           18.29650901160658        9.27784649257601       30.85961832843963
H           18.28397249734827        8.65442721769785       31.74631101485425
C           19.28438911218288        9.10196672755610       29.89930547986409
H           20.04299381402897        8.33960870959280       30.03379502824193
C           19.29737959613957        9.90319984637185       28.76625114454240
H           20.06459891337454        9.77045661561238       28.01217107042369
C           18.32153000019450       10.87118353032514       28.59221843986505
H           18.32967248038659       11.49099228751119       27.70235780121491
C           21.31461765349584       12.03602734963084       26.03870642680665
H           20.80937958149320       12.04882917180431       25.07885056138184
C           21.25951129492783       13.16596676666033       26.86163784788744
C           21.88396966706861       13.12351078034227       28.10868610958513
H           21.83882532889994       13.98369208660694       28.76712060475424
C           22.56029973038203       11.98234940062510       28.51405221990782
H           23.04042354862948       11.96025844494480       29.48577646132023
C           22.62134802869344       10.87149217505468       27.68347956061481
H           23.15027070457649        9.98156258018241       28.00436926162408
C           21.99636586029365       10.90019935317674       26.44260011279872
H           22.03268468639339       10.03358838486409       25.79241153479399
C           20.06565515818691       15.68523838500043       27.68236907244764
C           18.81595811421337       15.75030226212548       28.30031013396515
H           18.01047496589774       15.11723113123433       27.94319634878027
C           18.59385019626039       16.62170465457957       29.35450378442525
H           17.61687297047416       16.66657749242193       29.82047103991744
C           19.62119043511984       17.43729971491850       29.81060788119878
H           19.44682713466723       18.11886190119938       30.63514497858854
C           20.86940236696253       17.38094692866156       29.20407560027208
H           21.67255023716125       18.01885737909883       29.55477252387672
C           21.09101041480394       16.51516194152057       28.14448884942221
H           22.06288415418520       16.48767469393564       27.66471347237770
C           21.34728841385585       15.50264329719878       25.14650271251959
C           22.49337816393216       14.97186020815392       24.55452339425592
H           22.83580667095416       13.98053980417465       24.82882459551742
C           23.20337935272738       15.71072294660406       23.61781542692916
H           24.09714705934400       15.29105565173938       23.17039875617191
C           22.77675631904198       16.98178648732116       23.25689310922034
H           23.33332821105896       17.55432123459919       22.52409231942989
C           21.63248874238988       17.51674780219308       23.83603524527665
H           21.29239241058195       18.50905493757749       23.56085042495962
C           20.91994922693388       16.77977407029163       24.76704846710307
H           20.02285883262466       17.19589043451809       25.21310744355298
C           17.81958567194884       18.87403970484294       24.34794618264416
C           17.75325016488946       18.43346939229031       25.67207699003361
H           17.16206676214066       17.55648042002335       25.91489314729680
C           18.43925829106343       19.10309215894210       26.67295584426169
H           18.38024591413129       18.74868259851844       27.69530549395241
C           19.20531153579106       20.21894218268760       26.36477736078391
H           19.74739185979972       20.73724972986215       27.14724285828979
C           19.27940705600088       20.66518281475632       25.05209255110334
H           19.87748851134047       21.53537142346733       24.80705107161656
C           18.59321996807270       19.99813195675846       24.04876549163027
H           18.66072689098059       20.34819959607821       23.02488777785075
C           17.90938265701041       18.21388304191610       21.56766340089564
C           19.11058643950935       17.51274678258217       21.42697437212678
H           19.42668549644143       16.83342751321283       22.21201880506861
C           19.89831782439666       17.68004887620440       20.30048605359235
H           20.82919731201271       17.13195317892697       20.20788573858981
C           19.48990833681950       18.54258972472942       19.29140520976162
H           20.10283566010743       18.67212052283289       18.40701740877898
C           18.29245842451953       19.23367666009565       19.41538515355062
H           17.96868342861403       19.90424483922207       18.62766343957085
C           17.50324851546196       19.07102530872346       20.54444651660199
H           16.56808345648834       19.61229766596043       20.63112504584691
C           15.36709256960730       18.76658421990669       22.82111396232907
C           15.00040142147132       19.93822703766031       23.48394154465912
H           15.70772333537983       20.43241397550004       24.14041856730822
C           13.73080036136718       20.47197127413748       23.31078504703689
H           13.45766762224579       21.38400011400926       23.82951886386376
C           12.81392048410017       19.84372703683221       22.47914638454524
H           11.82022283871180       20.25822487875212       22.35500183945781
C           13.17044148078510       18.67905484301227       21.81159543685572
H           12.45925899961470       18.17758933041035       21.16544368903811
C           14.43460392766006       18.14307191826085       21.98574364252363
H           14.70539276389512       17.22488195436888       21.47629650074733
C           14.20171101481111       18.21967778652680       27.44762929738884
C           14.10181154713334       19.43176240248883       26.76189901568166
H           13.40446718284461       19.52761068400061       25.93727939293009
C           14.88247046655277       20.51643137365685       27.13198421306846
H           14.78982287261417       21.45342870760771       26.59467583488654
C           15.77368336474543       20.40692750431433       28.19020563128728
H           16.37906109308934       21.25698512203551       28.48244731736170
C           15.89142286089783       19.20158981078983       28.87153048293377
H           16.58473132846041       19.11116543209511       29.70022431684476
C           15.12312346978796       18.11204547774082       28.49470075209696
H           15.22876208920640       17.16976275831061       29.02251336494372
C           12.61390500024397       16.07297576116963       28.47024183777447
C           12.33128327551457       16.85669673416623       29.59193104099144
H           12.51756053917791       17.92428544260942       29.56774748678134
C           11.82385588905291       16.27740130140785       30.74535841535897
H           11.60990989266799       16.89837930977170       31.60773019461751
C           11.59025795731269       14.90972712585764       30.79828031734534
H           11.19526960687004       14.45887437728625       31.70124975558905
C           11.86932982314705       14.11982307933506       29.69120127075065
H           11.68880882591362       13.05177163293863       29.72347303370606
C           12.37943673873383       14.69773983922450       28.53924794882780
H           12.60158698274900       14.07599735201253       27.67911614518259
C           11.82694021970948       17.39807172495027       26.05126688079825
C           11.65564503242061       17.08198794277761       24.70290270688527
H           12.39487347128876       16.47249477693101       24.19638204133684
C           10.55190532094917       17.54107131221816       24.00153225440313
H           10.43881966011063       17.28387506844967       22.95502194713680
C            9.60049890441512       18.32237755488191       24.64036539188132
H            8.73495576822604       18.68030743927497       24.09505548336715
C            9.75883465765469       18.64440913111427       25.98295202640886
H            9.01821820697321       19.25569523606366       26.48587699991539
C           10.86236827265272       18.18666632452263       26.68596015044397
H           10.97563657810633       18.44189716404842       27.73368213477688
