277
 energy: -442.434908129178 gnorm: 0.000037428626 xtb: 6.5.1 (579679a)
Au          27.78773643378888        9.88571970183848        5.22912027138341
Au          26.08245856645349        7.65219590811250        4.01465764350089
Au          23.90406226660044        7.30023736367876        6.01074355406189
Au          22.68432364174569        9.97425728261184        6.59847289245053
Au          25.19119779051030        9.97934118454546        8.22832778216346
Au          26.12526813180079       12.02026867139260        6.32130208880886
Au          23.80359510445523       11.79381671600229        4.55429790473273
Au          23.35958390941351        8.97371981833153        3.65798037485534
Au          25.92120401641888       10.45237407226771        3.04797266213358
Au          26.65180528094139        7.80215348235540        6.94261946759457
Au          25.13645784935426        9.67149471732444        5.59203723734066
C           30.71155883337731       11.12122613758994        3.63381430316062
C           29.82862459365424       11.45082770728455        2.60403668797432
H           28.82594755503498       11.03853599799302        2.60035028324822
C           30.20981838558819       12.30799832132080        1.58526293408837
H           29.50364198009004       12.53984580969808        0.79532047206677
C           31.48350827613977       12.86135369136453        1.59089195234661
H           31.78851156886791       13.53451690730442        0.79807515051181
C           32.36576541818535       12.55499955678266        2.61961794747356
H           33.35842701181164       12.99079225666643        2.62960562861280
C           31.98769385742319       11.68894295743366        3.63498345097155
H           32.68346077701928       11.45466943154152        4.43290593041498
C           31.03274026525465       10.36819196392969        6.41188067367393
C           30.94536926890799       11.68188319264279        6.88459449753025
H           30.46116304301616       12.43974534603466        6.27724383485289
C           31.47022878141419       12.02228220492694        8.12034916245851
H           31.39832986852662       13.04534276212951        8.47274007165519
C           32.07733375966651       11.05280943980624        8.90906784899066
H           32.48198269716068       11.31761826820536        9.87912842026259
C           32.16104727537059        9.74410476098214        8.45300137519204
H           32.63749227239293        8.98574838546034        9.06381710997735
C           31.63790815999219        9.40054995210856        7.21481372493561
H           31.69952013564757        8.37476934921409        6.86937118216680
C           30.80417740100762        8.35272766565493        4.37752547164219
C           32.00065286138334        8.07966008255219        3.65032143238010
H           32.69524892328241        8.82355977694113        3.28289453392374
C           32.18520149061575        6.67900061661487        3.61818737044809
H           33.04733721585403        6.16556441549358        3.21316085018542
C           31.10612400882366        6.07290800605617        4.30679100213008
H           31.00012225633395        5.01762157248822        4.52092953708005
C           30.25010845767223        7.09650067599296        4.76893343319795
H           29.38884513851034        6.96275990813407        5.41163876503387
C           28.60323385575740        6.64739283349578        1.83104131155363
C           29.68496837571860        5.90362548148657        1.27262881452562
H           29.74470138317792        4.82459713480033        1.21806728657136
C           30.59163218696919        6.81644659933165        0.68716590537321
H           31.46859260527431        6.55218123590120        0.11076978791447
C           30.09388090141324        8.12676073852443        0.88822375759469
H           30.51906780285031        9.03861103989288        0.49026192102233
C           28.87759879568428        8.02653922169690        1.59808935959274
H           28.20451901863932        8.84106577408115        1.82557162254485
C           27.50890292064397        4.38249033535890        3.17088087317930
C           27.65620786887513        3.28706300417277        2.31434625800472
H           27.48396075816884        3.40479274122015        1.25041571622175
C           28.01040537889490        2.04658847643381        2.82098858468560
H           28.12081683564380        1.20398939254087        2.14782537267569
C           28.21730960566948        1.88157697169860        4.18507161441430
H           28.48661425447890        0.90820340801331        4.57831705512498
C           28.07315058607130        2.96284412749426        5.04289387249747
H           28.21347884913855        2.83874593953949        6.10986076605906
C           27.72196123887908        4.20536417050845        4.53803813289489
H           27.60190513303421        5.04651868831103        5.21144226682221
C           26.00514232454720        5.67518657444456        1.12057132924231
C           26.16477578691563        6.30994523796217       -0.11104259998046
H           26.97040220194727        7.02002342454483       -0.26111892036493
C           25.28478240306181        6.04495522034897       -1.14962609027090
H           25.42643228293092        6.53292340235550       -2.10670778460058
C           24.22829695865811        5.16419281746621       -0.96824964560539
H           23.54125044393422        4.96299543911193       -1.78231674844474
C           24.04862819987397        4.54379751385240        0.26236419626650
H           23.22934689754855        3.84834827556399        0.40795356877396
C           24.92695019455551        4.80138654807367        1.30253042317460
H           24.78408036685924        4.31418630694294        2.26221257305107
C           22.95582466843306        3.86903584667424        5.58716913765839
C           21.85030279065636        3.26601596458278        4.98716813397137
H           20.84884824249584        3.60140020430309        5.23275813307554
C           22.02637568643458        2.23011310602519        4.08026048325712
H           21.16013644824389        1.75342190468951        3.63522904353001
C           23.30373874854664        1.79943394153564        3.74995963741946
H           23.43735634882528        0.99422909562387        3.03673184429486
C           24.41004714899170        2.39722480351714        4.34091736991385
H           25.40840578661070        2.05401088397668        4.09554787518286
C           24.23982913263779        3.42473797529033        5.25353069907407
H           25.10568460209722        3.87407266189214        5.73061370256113
C           23.44731616730196        4.59278807945820        8.30246915379620
C           23.27383165396090        3.24838809754969        8.64072590149917
H           22.75653366770995        2.58269837805990        7.95889215657640
C           23.77672152255060        2.75679502192526        9.83470009406364
H           23.63999297844303        1.71101387431078       10.08505515001578
C           24.46681276427735        3.59511703317663       10.69969182786507
H           24.87323127586803        3.20502961043027       11.62564627706264
C           24.64825699180697        4.93090087514683       10.37000059174319
H           25.20618373338331        5.58230487253541       11.03288083070235
C           24.13830606984338        5.42814061283953        9.18172150345553
H           24.29484609060519        6.46945006840071        8.91956959887925
C           21.06694445843147        5.49914436660757        6.98849344349011
C           20.28239993877351        6.44185156973664        6.26253276762365
H           20.66233425983985        7.11117997378249        5.50160533972300
C           18.92389100909119        6.24734232469339        6.60008452786206
H           18.08032429970890        6.75366178221768        6.14971520062849
C           18.85448769976600        5.19209686977229        7.54186285259801
H           17.94739541874541        4.75417597227684        7.93736891535209
C           20.16892339002094        4.73479910251166        7.79022605887671
H           20.44201804860580        3.88738400907666        8.40511303890345
C           20.29179289107365        8.72075341942900        8.78906377338855
C           19.05383693527611        8.23852181783461        9.30821889984834
H           18.08346724912957        8.68335399735239        9.13155558780417
C           19.33215405337578        7.16632797852447       10.18653562730442
H           18.60652889239065        6.64757033405305       10.79910371654153
C           20.73390862217900        6.96621283537048       10.21239313497823
H           21.26655081147657        6.27063486286665       10.84724804535548
C           21.32658136744000        7.91325640443053        9.34901426148482
H           22.38777371246240        8.07943431170811        9.21698267130914
C           19.06624192941631       10.58125161258628        6.97390362198833
C           18.17920452070071       11.56920451775057        7.40570181315839
H           18.38435863984020       12.12204785780539        8.31515686644516
C           17.02990392277755       11.84740139756639        6.68061214886254
H           16.35104977505831       12.61807850188249        7.02752751371139
C           16.74894925170233       11.14450951923161        5.51742112754893
H           15.85104671015187       11.36433243365897        4.95186692170380
C           17.62536449673241       10.16120791592966        5.07738565718357
H           17.41468398516696        9.61348560233667        4.16598683874253
C           18.77911730992852        9.88912586125805        5.79431966150318
H           19.47172192720456        9.13562554828058        5.43482696478981
C           20.75797443195803       11.50469869650229        9.08813953442017
C           21.53759172606832       12.62526392858960        8.79264612786736
H           22.05659978959286       12.67667844361527        7.84135577108372
C           21.65336428046357       13.66683761262284        9.69953668994982
H           22.25237613631464       14.53570135858047        9.45138609608244
C           21.00262390156589       13.59592405513912       10.92393551503550
H           21.09607121376861       14.40727059042218       11.63633804955411
C           20.23189438616583       12.48295842033884       11.23278949009238
H           19.71847358280778       12.42645991312690       12.18582754184149
C           20.10880732377836       11.44340937911619       10.32270130994190
H           19.50704381096245       10.57708342665175       10.57362811104001
C           24.20895687381952        9.70371027815287       11.66671415932707
C           23.13579108193949       10.49206040713517       12.08660151279534
H           23.12081070168589       11.55197123827698       11.85679443697980
C           22.08999518338286        9.92753746177727       12.80078692790535
H           21.26677131384133       10.55156698532260       13.12956715532950
C           22.09206139893087        8.57046406268182       13.09245961510659
H           21.26990198655935        8.13241061792445       13.64629462636340
C           23.15042095639776        7.77556598342142       12.67114659356406
H           23.15968022164335        6.71513634571679       12.89635337645467
C           24.19774390226520        8.33675712333164       11.95924509400317
H           25.02220048196575        7.71446935737076       11.62950368243311
C           27.05723319671941        9.66116184382876       11.19308114814533
C           27.29814541873245        9.42308260264686       12.54866741243841
H           26.52209368749928        9.62313392984003       13.27909993242285
C           28.52313439638661        8.92318670625556       12.96299795829667
H           28.69884084609094        8.74069487596079       14.01703468741291
C           29.52094515195054        8.65393228863844       12.03511400292619
H           30.47571402320226        8.26065991007878       12.36433736366432
C           29.29018842313565        8.88124424949580       10.68548074538846
H           30.05979984453223        8.66537531979333        9.95306424907162
C           28.06664949133894        9.37965183528815       10.26988726171540
H           27.88387831488361        9.54455833071869        9.21390300422005
C           25.58201506589491       12.10511685138683       10.99274175790364
C           24.95762830764464       13.12602432111745       10.21871964555819
H           24.40742527038895       12.95785049830173        9.30270416821610
C           25.07106845742319       14.34933457374466       10.91692439303246
H           24.62401450410852       15.29022662320144       10.62393371339046
C           25.77373300879012       14.10027031798258       12.12122069359461
H           25.95596951143400       14.81967105026569       12.90874477134519
C           26.09765890806555       12.72537090817821       12.16886303521525
H           26.56386501902834       12.21097261202320       12.99865348743692
C           27.79231193902588       14.01940015637550        8.66679185167686
C           28.35404579984165       12.82411604641761        9.20579766707010
H           28.39548548491242       11.87085413900967        8.69562390719639
C           28.96367653657164       13.13556067501276       10.44134307785600
H           29.54612413731833       12.45496576012686       11.04819499960261
C           28.77669610379922       14.51815119144436       10.68491193301292
H           29.19197977183178       15.07763941342467       11.51281759958705
C           28.05195279572655       15.06535542424933        9.60118581723061
H           27.81671952020229       16.11150798981049        9.45664484206314
C           25.89668283585679       15.48924683474192        7.09781156676588
C           26.30891541162361       16.82248954155257        7.06373183850079
H           27.36334382693927       17.05875561860643        6.97364763705874
C           25.37439477541291       17.84504272911054        7.13443990317386
H           25.70435856474076       18.87720726050064        7.10832056149798
C           24.02064737570145       17.55108097907153        7.23589583665738
H           23.29338357945420       18.35290236841456        7.28819737883901
C           23.59894420655197       16.22780985149941        7.25905802104577
H           22.54252504281153       15.99191404885854        7.32367925951575
C           24.53244934856185       15.20524168443072        7.18724628778275
H           24.20309747267789       14.17141604702962        7.18789164189880
C           28.41157489814256       14.63714015102834        5.94779365565354
C           28.23149845032075       14.46287062491987        4.57233405911027
H           27.29115065839837       14.06739611876591        4.20264867758801
C           29.24307150529129       14.78156092897553        3.68292996937157
H           29.08903853944931       14.64045862868953        2.61951247810890
C           30.45772995631438       15.26059321544626        4.15609346198452
H           31.25628089692381       15.49304212010213        3.46113045315662
C           30.65076401069915       15.42981566899307        5.52013521477581
H           31.59903327434857       15.79959456436066        5.89316661586403
C           29.63469301699291       15.12225703619045        6.41372706172091
H           29.79466996828272       15.25377888902086        7.47800370296545
C           21.65379380049178       14.64208887838809        4.24443876995329
C           21.27273427285949       15.94407413897730        3.91098885070098
H           21.77677846191825       16.46577597212102        3.10540836506952
C           20.25399733982686       16.57496988444155        4.60906169322778
H           19.96853273837593       17.58659466710301        4.34409773518855
C           19.59971956715340       15.91731267415612        5.64262454493189
H           18.80531846770507       16.41551117637684        6.18618590697139
C           19.96502011348858       14.62047451949060        5.97806000422365
H           19.45730183467039       14.09830767420888        6.78162913770830
C           20.98584505678262       13.99126998668872        5.28399410246591
H           21.27539278914128       12.97937073057310        5.54822213536019
C           24.26597665726146       14.92336463548258        2.97553902208078
C           25.14585641073085       14.64092720795190        1.92591281727290
H           24.98344004707040       13.77159788787109        1.29753101651980
C           26.23686033923220       15.45915470728016        1.68237606546911
H           26.90735230688486       15.22699598656527        0.86287225510458
C           26.47401248223901       16.56600402645788        2.48763341732058
H           27.33026786282086       17.20320964261727        2.29939206769184
C           25.61455628322321       16.84793595472003        3.54055610358684
H           25.79723251959618       17.70459985500383        4.17977480788716
C           24.52262648131026       16.03029078634950        3.78808186599637
H           23.86522863083311       16.25327811954813        4.62056816423383
C           22.25608956490617       13.31320744021573        1.78220133263559
C           22.77494644199923       12.29763203305767        0.92445836857631
H           23.64644016318366       11.68876079988690        1.12910895852858
C           22.05058302224403       12.32915536771847       -0.28779878491488
H           22.26546638709047       11.73505099093427       -1.16624524602561
C           21.07374432043539       13.34942578806857       -0.18965445178782
H           20.41033486817880       13.67112896155542       -0.98172081486798
C           21.19112598738759       13.95395284348885        1.08299694551400
H           20.63679070857082       14.81569695306347        1.43049305974025
C           20.52496493864696        9.99724093595185        1.91373345151714
C           19.58964086106797       10.33021350064391        0.88894081686714
H           19.45280376004712        9.78887212141078       -0.03764599899984
C           18.78958441210975       11.39968820745687        1.35011585284917
H           17.93668812022133       11.81921297598564        0.83307595541355
C           19.22477691272059       11.75003336333893        2.65147185751107
H           18.76382913445790       12.48079445351478        3.30296492865719
C           20.29477018613125       10.89461141373612        2.99752227279265
H           20.79321673380192       10.85507916765078        3.95687750675796
C           22.20727452320991        8.42116572362652        0.24132738462976
C           21.37341685026240        7.83893800385557       -0.71830850331029
H           20.41456479496273        7.42725926120261       -0.42347696645704
C           21.76974223162189        7.77972663446822       -2.04502736752798
H           21.11445538526432        7.32696596205882       -2.78048712108742
C           22.99794125882724        8.30076354733484       -2.43149131536931
H           23.30151891373660        8.25876218484677       -3.47101301722110
C           23.84151522818391        8.86229100437493       -1.48319083917913
H           24.81334596137919        9.24698858153652       -1.76989768931558
C           23.45164375270602        8.91488014913948       -0.15404661810918
H           24.12203055012031        9.33849577775677        0.58579527412452
C           20.63390528924291        7.17313546481682        2.27660378991704
C           21.18808042453528        5.90698176037894        2.06704295109242
H           22.19476532219869        5.82334258507466        1.67064188921517
C           20.45882400074190        4.76485074760974        2.34908292463398
H           20.89468460207678        3.79039906386022        2.16248547213266
C           19.17607695000610        4.86853725721747        2.87260950461468
H           18.60785329291426        3.97403085673080        3.09972824485194
C           18.62360007623807        6.12104412582475        3.10164197079113
H           17.62211238455368        6.20777479304756        3.50797552881199
C           19.34643278815462        7.26751296551838        2.80542009945442
H           18.90384530601631        8.24261024481661        2.97413672546700
C           27.14070461571452        4.88771758949258        7.76786837408613
C           26.73529060461016       10.27882683130529        0.02699746008250
Fe          30.39810792258227        7.19049446944436        2.71177602306409
Fe          20.78408689006007       11.95401231745660        1.31030616782823
Fe          20.01924542362999        6.72836604135847        8.28658025398578
Fe          26.94153224870112       13.58236102106648       10.49453135276238
N           26.50599460308863        3.94150730399255        7.54998615056252
N           26.86473047273221        9.35907774765812       -0.66721954344262
P           30.13076282079540        9.94726557315219        4.89257546687895
P           27.06350366088078        6.03404785936448        2.55431803437732
P           22.84704643905788        5.27921353820543        6.72993946421232
P           20.63879535780919       10.20439852760142        7.81570857949804
P           25.49824554951586       10.34836308894741       10.56048587351263
P           27.05113961368892       14.08338311042302        7.01871507231904
P           22.96971832170340       13.71807877026627        3.39589090109763
P           21.69663067893569        8.61727344044543        1.97558784915680
S           28.06080683652771        6.21944005415638        8.06635069876902
S           26.55290783461892       11.59427882355393        1.00086617089723
