281
 energy: -456.840738793533 gnorm: 0.000047953334 xtb: 6.5.1 (579679a)
Au           8.28408404158571        6.04447096142070       21.60071844869107
Au           5.83361113547621        6.81996771099441       22.99279421633936
Au           7.59204752829959        5.78137861391146       18.61825185482816
Au           4.74946497057625        6.13675747330151       18.34880257475788
Au           3.67338554385354        6.68181345322982       20.99887081670542
Au           5.80600631580804        4.63836048243767       20.89725849316836
Au           6.31211771329695        8.50781614397394       18.03333287307128
Au           8.69043142653055        8.28855321142974       19.71832229218396
Au           7.15335188718839        9.25375466761168       21.95665438740871
Au           4.70264614803501        9.44884983541009       20.42834304753158
Au           6.21228543740576        7.28941986720964       20.39289682921346
Cl          10.77858874188289        9.46691639235621       19.23139407585018
Cl           2.79148888593517        5.28666052103676       17.16473802502474
P            6.87170264609555        9.77050481200882       16.13314769826536
P            8.96333497288339        4.83849164155188       16.92217016574684
P           10.19984275863034        5.16146557385725       22.71507107210192
P            5.88442302839914        6.78135624265978       25.37285988578488
P            7.75003518818832       11.23413883148449       23.12665452877188
P            3.27042389546148       11.34019122237333       20.37978091288434
P            1.42037314834988        5.94886109251846       21.07735522362479
P            5.21648217253251        2.33076484715957       21.12876039329241
O            8.62434205378025        7.51087225076028       15.94933530781342
O            8.54517172159088        5.90298940472530       25.00004247479404
O            5.18766893516775       12.27006539809457       22.25716927753147
O            2.63908535539041        3.42911340957014       21.38936028088335
C            6.33214056353899       11.48977420278434       16.37697091174971
C            6.69103352701241       12.09414671462007       17.58725622630244
H            7.31048223460736       11.54905026631041       18.29129767664954
C            6.26316909273246       13.37362988186256       17.89534093804909
H            6.56237361868256       13.83117111187991       18.83188395417721
C            5.44700504306485       14.06374279306452       17.00741465524903
H            5.10878888046477       15.06507338882540       17.24790910733984
C            5.05964330421371       13.46441697753924       15.81769202404073
H            4.41221623709412       13.99446691699697       15.12831981143362
C            5.49857993888097       12.18615325108037       15.50223091013712
H            5.18939839150992       11.72968363486059       14.56886590673627
C            6.22641921892466        9.27951993130648       14.50887036034663
C            5.28505295017536        8.25106542724914       14.45379302462712
H            4.96239063679498        7.77200190065326       15.37155236800798
C            4.76715603300139        7.83463743139278       13.23733912831881
H            4.03894425239590        7.03258533904568       13.20808730218882
C            5.18515794515540        8.44327976884087       12.06220897861795
H            4.78331436721168        8.11794120009239       11.10956108615700
C            6.12160090694866        9.46893359281589       12.10507804935484
H            6.44940182192727        9.94415237088022       11.18749324829974
C            6.64362132215736        9.88604832125437       13.31983319938446
H            7.38105236573393       10.68081245093507       13.34957659484103
C            8.67091751699483        9.89833195953150       15.93249984219928
C            9.40703229155782       11.08275435240737       15.93346995181872
H            8.89368363028179       12.03531504366135       15.99426666137922
C           10.79086101943182       11.04708073807154       15.85648134830366
H           11.35157239986058       11.97419486916300       15.86494860620398
C           11.45882268732640        9.83264994558385       15.77303753305335
H           12.54070248555859        9.80998112022975       15.71841935557621
C           10.74683968125904        8.64216296038085       15.77281696730321
H           11.25316707537033        7.68668524195838       15.71885125287481
C            9.36468774414554        8.68579498640942       15.87108707654556
C            8.63244301090261        6.64126531663049       14.88145849158000
C            8.55970468460615        7.08934682576255       13.56901037769949
H            8.56798697655349        8.15143028563943       13.35921202957120
C            8.46624046269762        6.16289525707669       12.54101266576387
H            8.39685667397942        6.50761423870389       11.51579850916180
C            8.45264608810131        4.80303050853004       12.82180776722406
H            8.36529659365465        4.08294340290615       12.01706795293599
C            8.57452882923480        4.36112869173411       14.13068684004225
H            8.59569823931319        3.29834718753965       14.34145235794425
C            8.68651614658219        5.27495707470898       15.17752352761534
C            8.86206443982343        3.01813240083608       16.88841173824782
C            7.59842942392767        2.44648784902181       17.06157744364596
H            6.73583999646188        3.08932435139074       17.20223925767331
C            7.43558450637602        1.07070367479400       17.05398480910756
H            6.44593697161070        0.64393611944852       17.17106813384424
C            8.53880140634301        0.24249779011441       16.89207112593577
H            8.41462942148706       -0.83425258837682       16.89308065807655
C            9.80084825507602        0.79772866238206       16.72975412485485
H           10.66509719475153        0.15541874277284       16.60391854560728
C            9.96297978137386        2.17610601670123       16.72383150422715
H           10.95318436773296        2.59886679873357       16.59639893513922
C           10.72704234329473        5.21532403225193       17.15670650570367
C           11.14763225856408        5.64298831833799       18.41630803956807
H           10.42479558721597        5.72149716209467       19.22009137152398
C           12.47165693623773        5.97529382957410       18.64993497854456
H           12.77493922565415        6.31783449426579       19.63266186849756
C           13.39993349974956        5.87880078407845       17.62341912628170
H           14.43586022969761        6.14375738441930       17.80024710495683
C           12.99735651750268        5.44924286485277       16.36530813146718
H           13.71933525193069        5.37436142317071       15.56004175015246
C           11.67032543114139        5.12292841005968       16.12851397399526
H           11.36285932298640        4.80330881890574       15.13897485410007
C           10.95857430175106        3.94218254395405       21.59169694057900
C           10.09654606582519        3.11902266318290       20.86322942742095
H            9.02549597782188        3.20698681875489       21.01045134138903
C           10.59404301749251        2.19698199307783       19.95826465562094
H            9.91087928572721        1.56060633863548       19.40894397390569
C           11.96302396731687        2.09520089956772       19.75104710884511
H           12.35164004810330        1.38165006763367       19.03366662882184
C           12.83017580053095        2.91339168412596       20.46136244778696
H           13.89973962271303        2.84193666580848       20.30016142602959
C           12.33395843537662        3.82798643243275       21.37857833703819
H           13.02055610677720        4.46289209804286       21.92675380859380
C           11.54039811590748        6.36667907689713       22.93881390376753
C           11.61617307677136        7.39542208330949       21.99736854010385
H           10.85798674314796        7.47374995513483       21.22849977222480
C           12.64835058905271        8.31734230868888       22.02783073000723
H           12.67977738320148        9.10135282196989       21.28000114213913
C           13.62183197619563        8.22594859419183       23.01368000521408
H           14.43525007630692        8.94146650245737       23.04465488966652
C           13.54865692634174        7.21835728035512       23.96874921723620
H           14.30451781580789        7.14863407394905       24.74296589409360
C           12.51623478524685        6.29103297346174       23.93542421201663
H           12.47314928869495        5.50421915243377       24.68054653171984
C           10.11877572777774        4.25631967254292       24.29460462027534
C           10.82135221556099        3.08071532678882       24.56085631696976
H           11.46114237652806        2.65722007007978       23.79530786076997
C           10.71787110345128        2.45786747490715       25.79588996352405
H           11.27432252212715        1.54847614308700       25.98846389437620
C            9.91289070896811        3.00510648702096       26.78674287942744
H            9.83733695599844        2.52391199010143       27.75481688746481
C            9.19888078147846        4.16816544503183       26.54129210879886
H            8.56647151649099        4.60316111851913       27.30519147215309
C            9.29379575002965        4.77606632750322       25.29555226578125
C            8.55698738723570        6.95614779175786       25.89207616878588
C            9.73225198450089        7.41208341663659       26.47256923112979
H           10.66985221688127        6.91189263143446       26.26249306422922
C            9.68181568414779        8.51817720225706       27.30991757448352
H           10.59361462707249        8.88621842481616       27.76514336080986
C            8.47516374874392        9.16135199273727       27.55316826798266
H            8.44596654325056       10.03084666907696       28.19898844334704
C            7.30165740414556        8.68410520413826       26.98684768041760
H            6.35917429497378        9.17660847753366       27.19643372880738
C            7.32505937271064        7.55929032311882       26.16529224250468
C            5.74987988292256        5.18953535697168       26.24259818070456
C            5.33933142740748        4.07373354694610       25.51259994521305
H            5.11075216169465        4.18015162727052       24.45716237541395
C            5.22608837456258        2.83564609935954       26.12531306102464
H            4.90764544996920        1.97595063865711       25.54760000414343
C            5.51991693787017        2.69661653147621       27.47443722118218
H            5.43285049932255        1.72743571824629       27.95176246492265
C            5.92804857613804        3.80061974524208       28.21134075032702
H            6.15811493990898        3.69648855407506       29.26549573283360
C            6.04648374565407        5.04021945136771       27.60052538303287
H            6.37522958420140        5.89683930951549       28.17855150249714
C            4.49708303774585        7.77845467320505       26.00903320034037
C            3.70949932826666        7.43042224602952       27.10760499294980
H            3.92957910214089        6.52976752482003       27.66916527311134
C            2.64132842559088        8.22984203655404       27.49068225077137
H            2.03977558547656        7.94629141717821       28.34671759736535
C            2.34243398490397        9.38471121946872       26.78163006404117
H            1.50530691870450       10.00570670959469       27.07882706824766
C            3.11655292793709        9.73918103658131       25.68477934920460
H            2.88676999209114       10.63691851605363       25.12339432960715
C            4.18009226524399        8.94083460458798       25.29954730710373
H            4.77396991398393        9.21578581960935       24.43406434038175
C            9.23594679519209       11.11467618924103       24.17587591852362
C            9.98537211133272        9.93918023205830       24.14228403256331
H            9.64287765398932        9.10165671567792       23.54388699661254
C           11.16404125739072        9.83392456488007       24.86483001014790
H           11.73805692577130        8.91627895570070       24.82876877402071
C           11.61023583949016       10.89954884364108       25.63258997108100
H           12.53314532889815       10.81547040186707       26.19469440735457
C           10.87344765163172       12.07612658163267       25.67337548853394
H           11.21877521040599       12.91445803021307       26.26752887526890
C            9.69946416954964       12.18621395997844       24.94651350256168
H            9.14270453101097       13.11623865904961       24.97149104627113
C            8.24979635062961       12.57007034941794       21.99658551146724
C            8.24547098770010       13.92153134232066       22.34783733181288
H            7.89060179318753       14.22691922596764       23.32606976433210
C            8.69905412870566       14.87796030865382       21.45179107380692
H            8.68394256735291       15.92501022040302       21.73290575995520
C            9.17887502850432       14.49842845039479       20.20480645430251
H            9.53679400388297       15.24978398099956       19.51046535672371
C            9.21061264744827       13.15503163577324       19.85648923932446
H            9.60473773839207       12.84587055012662       18.89531852980422
C            8.74328116240358       12.19960682967325       20.74464778296381
H            8.77671860857411       11.15315246995256       20.46694703267303
C            6.48032097566754       11.93668349339095       24.22311358682721
C            6.55346113645983       11.93622106498648       25.61658718233965
H            7.44344198582881       11.55667173421072       26.10509755960979
C            5.50687767241477       12.42668793704263       26.38243875984889
H            5.58582936685741       12.42720928750468       27.46306931204555
C            4.36228621071785       12.92000904103727       25.76897073904946
H            3.54881135902853       13.31205257958421       26.36796639245289
C            4.24859871340203       12.89636240519647       24.38595889410304
H            3.35285881334475       13.25476608811631       23.89278584836595
C            5.29695756013805       12.38879190488266       23.62837935998965
C            4.73016745283329       13.34838163945492       21.52379082992768
C            5.15268155718467       14.64565166143651       21.78063937907749
H            5.81187236316988       14.84650456134415       22.61471448908766
C            4.71813663338756       15.67400121684175       20.95685393262836
H            5.04941155777862       16.68795887401975       21.14784931859598
C            3.86781299613355       15.40720138028274       19.89214028513162
H            3.53566660382450       16.21209034369098       19.24752992169270
C            3.42411981381832       14.11300871127668       19.66232180845510
H            2.74442208683787       13.91472375099082       18.84206779504269
C            3.83553436687270       13.06819706274756       20.48760063467371
C            2.30442888065701       11.34840734977942       18.83524480373378
C            1.03628072537309       11.92033381754904       18.70772009816942
H            0.54923031609077       12.35635834680237       19.57284293062767
C            0.39029042287813       11.92563316940563       17.48042882308808
H           -0.59128194957969       12.37730736726173       17.39287094541951
C            0.99397859097583       11.35322840973951       16.36778644556153
H            0.48395891155920       11.35762603268229       15.41161221403124
C            2.24904944186886       10.77124786834284       16.48521025899583
H            2.72493274775780       10.31583592780849       15.62415426005159
C            2.89633272198316       10.77159605953801       17.70983318902003
H            3.87757252502205       10.31833739474330       17.79870267507002
C            2.02759908629748       11.25960639133815       21.70965450366498
C            1.31807214174178       12.36942031718496       22.17615671607025
H            1.49066106170903       13.34595307611642       21.73781721706615
C            0.39504927836574       12.23237189367796       23.20245956125700
H           -0.15072113609948       13.10120647895378       23.55242586993359
C            0.17193030147061       10.99114914971343       23.78368637474153
H           -0.54627001933618       10.88863727331862       24.58890552321282
C            0.87761883865784        9.88280760141548       23.33457909544024
H            0.71965691577327        8.91155825703398       23.79017430313321
C            1.79588769199941       10.01955821522987       22.30595128944468
H            2.34741113975586        9.15204205260735       21.96119312102213
C            0.34587166675369        7.24381507067717       20.39301896356084
C            0.58824194387990        7.62989287001173       19.06929908831036
H            1.35102784994333        7.11863513972720       18.49101163767322
C           -0.14655383447362        8.65068201257029       18.49176552337982
H            0.03945418339417        8.93079252515793       17.46137037219257
C           -1.11241882540221        9.32013875755200       19.23286477611691
H           -1.68013567829022       10.12637037034530       18.78249327019989
C           -1.34755368235088        8.95679912496519       20.55099652006474
H           -2.09721337991875        9.47913949583469       21.13481271120773
C           -0.62676351559747        7.92102935174300       21.12814114738227
H           -0.82515036480139        7.63767622275353       22.15573960073202
C            0.78325117785999        5.62444568828213       22.75034138144220
C           -0.44708537625088        5.00221100231887       22.97809465638678
H           -1.06358545648225        4.70529618916289       22.13684734426613
C           -0.88156158773044        4.76114282984863       24.27277565719731
H           -1.83817403608725        4.27885401786300       24.43830122223201
C           -0.09374239365872        5.13344523443238       25.35463807588694
H           -0.43334922835409        4.93966763886000       26.36559964730383
C            1.13039734287765        5.75061780752449       25.13875906234545
H            1.75099898937623        6.04007065063618       25.97935674992263
C            1.56455659850745        5.99429678467604       23.84522951471191
H            2.52533437214599        6.46995931749564       23.67787826666370
C            0.92422941466348        4.47429667531405       20.14038279555060
C           -0.04901223970002        4.41830620214209       19.14464195911231
H           -0.58142166496512        5.31693074486637       18.85811319003535
C           -0.34322361867204        3.21466318158214       18.52240867706141
H           -1.09720625657916        3.18334153420007       17.74516930529181
C            0.31407713430107        2.05147462257516       18.89934744582678
H            0.07097721081201        1.10922957144079       18.42221230674398
C            1.29387805638076        2.08667721011460       19.88158053967272
H            1.81564824248089        1.18591098719774       20.17973122971495
C            1.61026734461774        3.30333809763423       20.46720432495133
C            2.78450886218522        2.44047363032228       22.34339491690740
C            1.75430756246109        2.12146463603039       23.21707440707655
H            0.80527616963980        2.63872396868916       23.14617988729566
C            1.96396260959555        1.13360787433363       24.16854881350320
H            1.16886012560329        0.87491196432036       24.85801994301432
C            3.18402945066108        0.47226646685843       24.23418067719181
H            3.33740377210240       -0.30862643686721       24.96958215424619
C            4.20714341580166        0.79526270814809       23.35242487313949
H            5.14857780926880        0.26078586472820       23.40131180734253
C            4.01875584281711        1.78681346707955       22.39202453861818
C            6.70318505474586        1.36475900949964       21.54623559727712
C            7.31368581395776        1.61949788567270       22.78032280554917
H            6.86933741293022        2.34058411321689       23.45937056308486
C            8.47784845086080        0.96262450012380       23.14331847322945
H            8.92947063745672        1.16100537305219       24.10866976155856
C            9.06848629240165        0.05831596598759       22.26987892858040
H            9.98162254550570       -0.45261623023921       22.55222940178800
C            8.49124231137852       -0.17796515461619       21.03012294588241
H            8.95208291457517       -0.87492049576980       20.33929160164367
C            7.32036234034986        0.47315857400865       20.66855566740408
H            6.88548510085640        0.28432077096138       19.69393786016272
C            4.55795601454804        1.57662068068476       19.61407202379480
C            4.27161004165797        0.21054427552989       19.51140466775917
H            4.45249632662857       -0.44617674171125       20.35551769248410
C            3.74889378546474       -0.30317863564402       18.33464294190137
H            3.53519591583655       -1.36358116496883       18.26167654030739
C            3.48705812970131        0.53526448387904       17.25653670814571
H            3.06766999519848        0.12666298401526       16.34449101277444
C            3.75086103604064        1.89372458308058       17.35548718075593
H            3.52742169951472        2.56628749160010       16.53575481798080
C            4.28819816859622        2.40475673799385       18.52572911473337
H            4.48102634950084        3.46676335123491       18.60362252887865
