281
 energy: -413.901022646250 gnorm: 0.000034659631 xtb: 6.5.1 (579679a)
Au           0.39048821351722       -5.62606441692359       20.01405163956435
Au           2.23360829548513       -6.67824207106588       22.04098543784816
Au          -0.58752685008598       -4.33963284223837       22.47756613549841
Au           0.29666414245347       -2.68382570361755       19.89517924160772
Au           2.92110143007225       -4.48347637834414       19.08979924857129
Au           1.76683058975434       -4.67224451720729       24.18113186360481
Au           0.90559399038269       -1.80322828482288       22.65727718535422
Au           3.11074584730947       -1.87183959277271       20.41910008026028
Au           4.50700565575134       -4.87084445076493       21.56750607462741
Au           3.65887378279136       -2.61284571274115       23.21338937322959
Au           1.96471084240213       -4.04953656696991       21.57565461393994
P           -1.00090003198328       -7.04332032859367       18.67249301589055
P            2.26833464600402       -9.05773151180963       22.33279348329737
P           -2.83669673766414       -4.85953398135705       23.16322898501706
P           -1.24810047918498       -1.41679013756342       18.56678285383008
P            3.95347787643202       -4.87067963874857       16.96089914264807
P            1.77785085567825       -5.26314957689240       26.50615269055563
P            0.11468546711859        0.24651954516707       23.61665549481606
P            4.28825257121700       -0.08290235586819       19.34064724219106
P            6.78498017219516       -5.58004987784778       21.77373474517872
P            5.06714895600643       -1.47776373333639       24.79807312858845
C           -0.18359663989249       -7.85358075725647       17.26475008076598
C            0.26553634917300       -7.05689270874039       16.20585267244006
C            0.91409044554397       -7.62467128772336       15.12136583250379
C            1.13921808926355       -8.99454384374931       15.08406843662008
C            0.72294490871601       -9.79109313620881       16.14165669614537
C            0.07147072129532       -9.22623402881228       17.22814049546577
C           -1.83271001000477       -8.37910452391155       19.57930861469253
C           -1.55531888300428       -8.55112960105452       20.93791498264986
C           -2.18642520631109       -9.54665195858775       21.66958948917000
C           -3.10476526751569      -10.38472477065759       21.05249570094177
C           -3.38894961043766      -10.22495957301009       19.70256611394307
C           -2.75931706813689       -9.23177519850542       18.96921576680005
C           -2.39660706673503       -6.14605549041546       17.86169676451783
C            1.04502569125087       -9.68008629661696       23.52001659856484
C            0.74926135763861      -11.04077563783518       23.65827271493613
C           -0.22043359993016      -11.46178851959517       24.55447139282835
C           -0.91294730893064      -10.53456838872318       25.32215302168460
C           -0.62818146701867       -9.18177963822992       25.19421255883123
C            0.34544216475632       -8.75869276258827       24.30292058764586
C            3.86099611259490       -9.80018389621598       22.80070661085419
C            4.95903370593035       -9.52899949489264       21.97727845875251
C            6.21217471781256      -10.03699942601394       22.27838843944352
C            6.38974695070371      -10.81705585236273       23.41451785039662
C            5.31068347145432      -11.08038078952336       24.24647786052634
C            4.05378007961985      -10.57231662461678       23.94731049317416
C            1.85746498311714       -9.97241750819736       20.78089072651378
C           -4.03884886426116       -5.07064913658318       21.81804950389282
C           -4.67210057464637       -3.94549448898236       21.27981442423386
C           -5.53290615502148       -4.06761685491765       20.20078101449003
C           -5.76598362414925       -5.31352575767351       19.63253459153486
C           -5.13440946844363       -6.43636223410151       20.15086956405721
C           -4.27416204925599       -6.31693198143097       21.23265515256210
C           -3.62227130220647       -3.66019200231877       24.27880128861677
C           -4.97674388352666       -3.74127186414986       24.61908364750803
C           -5.52906266184726       -2.83680182945119       25.51153980870299
C           -4.74052142593475       -1.84531364436972       26.08124705717199
C           -3.39631189860476       -1.75362487939418       25.74843269938708
C           -2.84371921296716       -2.65136749633253       24.84807634183062
C           -2.96017904257142       -6.42933443140897       24.12497924350188
C           -0.95306830010624       -1.48598897689087       16.77460110632692
C           -0.45027575623851       -2.67321095163314       16.23518700064798
C           -0.26517933368400       -2.80188951236229       14.86766100638465
C           -0.56189740404541       -1.73914491422736       14.02334120846129
C           -1.04577741142109       -0.54947699167979       14.55166820876711
C           -1.24477902268309       -0.42191571771558       15.91791793608941
C           -1.25211848048513        0.35130011629350       18.97825219556458
C           -0.01452097634046        1.00570451582948       18.97924079315889
C            0.07965543483890        2.34354941394943       19.32516349577115
C           -1.06081359887243        3.04824502526641       19.69352002234387
C           -2.29040996489707        2.40641052449788       19.71274692519635
C           -2.38856192356651        1.06880174298734       19.35773664753346
C           -3.00853550558653       -1.95498363586747       18.68070475862101
C            4.17244468438177       -6.63122828994622       16.57533730884703
C            4.87557525027493       -7.06322777182103       15.44574851736666
C            5.00760738981283       -8.41599260402670       15.17684812245278
C            4.44410107192421       -9.35661655359147       16.02974331687981
C            3.74389932113450       -8.93895744984212       17.15413212720063
C            3.60753308762566       -7.58574308575493       17.42355654398254
C            5.61716340949906       -4.15261436887790       16.82439486795223
C            5.77370656198025       -2.80298331013464       16.49438893394207
C            7.03352468119120       -2.22433404078280       16.46831016917447
C            8.15560586633528       -2.97953824866605       16.78465190080335
C            8.01068782566245       -4.31666942644795       17.13073691400181
C            6.75191256410615       -4.89813255703333       17.15492460102583
C            3.08740726997358       -4.22299158704469       15.46492429753383
C            2.94452985757584       -6.58365809008178       26.93987224646252
C            3.68923954345703       -7.17843746047945       25.91885756725936
C            4.64715123368476       -8.13814929559913       26.20673110632824
C            4.86396514916458       -8.53053141621697       27.52068671576606
C            4.12488928674074       -7.95340355448922       28.54489212565571
C            3.17767298105687       -6.98252487958991       28.26095675638447
C            0.15250194436913       -5.74584531261490       27.16335237129967
C           -0.11365360707887       -6.97349812641697       27.77129716301822
C           -1.38979916408011       -7.26460068559903       28.23426188678368
C           -2.41558239480115       -6.34129318492119       28.08897657374347
C           -2.16597372659328       -5.12278925231644       27.46901724620029
C           -0.89377626187193       -4.83047337987765       27.00439650064878
C            2.26453477271274       -3.90838167256741       27.66567375512322
C            0.51841904988915        0.46228399099032       25.37498073019750
C            0.20991324971852       -0.59892361157942       26.23391592740635
C            0.47447482172185       -0.51457910602784       27.59072291005406
C            1.08363585614075        0.62124260171818       28.10978011839151
C            1.42316702607558        1.66782334570631       27.26460872982633
C            1.14092120818754        1.59379479005124       25.90745959127666
C           -1.69031209629863        0.45785763971668       23.53626622379145
C           -2.38000073747336        1.31198027252026       24.40156380947417
C           -3.75369475703769        1.46124167650279       24.29032477750215
C           -4.45612952001067        0.76465084868525       23.31586033931860
C           -3.78021583562296       -0.08535401772450       22.45141483511263
C           -2.40756813522943       -0.24129213441002       22.56322785408068
C            0.71680558821634        1.77820749742394       22.79063368629422
C            4.07759155515830        1.53547829586648       20.14318645881704
C            4.24006048627076        1.57882851399322       21.53168829078106
C            4.08853478268543        2.76967212497592       22.22412011410800
C            3.75492476794950        3.93301452495288       21.54105093331820
C            3.57145849369700        3.89688760524923       20.16613961405898
C            3.72949612709657        2.70706536272151       19.46899496037197
C            3.96286510782416        0.17590906166939       17.57297802148863
C            2.88658831010648       -0.49549632795227       16.98573938327887
C            2.60246579896511       -0.33568019168060       15.63792019743283
C            3.39399838472529        0.49316372676129       14.85471243997625
C            4.47051665224348        1.16024590649823       15.42357542977102
C            4.75501255663614        1.00537455400826       16.77134354814434
C            6.11614702833168       -0.32544992876284       19.42084686792967
C            8.02860546608199       -4.25595389506154       21.77602855582715
C            8.20247910112490       -3.54367889734777       20.58347899422582
C            9.13887865174047       -2.52756295548675       20.49676990786938
C            9.90624435833296       -2.19356888063145       21.60661632599353
C            9.71467974826988       -2.86684146253723       22.80516902888919
C            8.78084115486538       -3.88951971960407       22.89384508327941
C            7.39704210082367       -6.71900443970569       20.49483593368019
C            6.49018539858772       -7.35441242360806       19.64461727026378
C            6.93171847687461       -8.28007703927147       18.70980516388148
C            8.28534329659978       -8.56656973095800       18.59986255698230
C            9.19797474775834       -7.92485549886857       19.42677665917927
C            8.75913581717317       -7.01102643391625       20.37120976716360
C            7.10180911064397       -6.53895329422857       23.31514930328325
C            6.17025557486362       -0.18074524154956       24.16759117616760
C            7.02519420721288       -0.52728383974476       23.11404077502058
C            7.87663428802369        0.41301023141910       22.55733826984419
C            7.87940463738119        1.71852657811204       23.03178439291539
C            7.03014727832810        2.07603313072990       24.06859658920311
C            6.17930128264448        1.13624870128821       24.63343349933047
C            6.18081638912671       -2.65318002139446       25.62711096103160
C            7.46563852677326       -2.31043643657881       26.05537832894078
C            8.26826293596398       -3.24866459509322       26.68683508903526
C            7.79835201875853       -4.53583259040993       26.90917724909251
C            6.52220731122135       -4.88837116250422       26.48829173312854
C            5.72432394630642       -3.95636996715252       25.84281729774628
C            4.17644043045033       -0.69311905896150       26.21024313972058
H            0.09700253967838       -5.98498117739361       16.23032179853904
H            1.24283065618802       -6.99656144875656       14.30128102715854
H            1.64317201395832       -9.43885463969155       14.23412946606089
H            0.90133490651137      -10.85982765402763       16.12060690603024
H           -0.25131125235884       -9.85909765626887       18.04705437759696
H           -0.84334569682108       -7.89189183703885       21.42495213040893
H           -1.96039468693529       -9.66731431392200       22.72271555315219
H           -3.59863659353383      -11.16183988059484       21.62358208615830
H           -4.10449906099953      -10.87816155228263       19.21726058835101
H           -2.98643778735555       -9.11770903298794       17.91527947701668
H            1.27857287789460      -11.77391778289283       23.06043869517112
H           -0.43772183960649      -12.51884331770614       24.65264633310240
H           -1.67329255809438      -10.86530065939097       26.01963936960840
H           -1.16353477721272       -8.45373009085562       25.79262948385481
H            0.56646220399240       -7.70007772022811       24.20701088478111
H            4.82445159242733       -8.91782418363165       21.09068601592968
H            7.04967140056281       -9.82717659456914       21.62277925374787
H            7.36848713167239      -11.21743900389196       23.65033165049698
H            5.44421958630132      -11.68720705033279       25.13439377431681
H            3.22063636256164      -10.78099012664759       24.60838795584051
H           -4.49953292552549       -2.97134764335026       21.72485647540013
H           -6.02820745815545       -3.18821336813878       19.80570516374554
H           -6.44184224256999       -5.40955692934022       18.79125240770655
H           -5.31464698080517       -7.41311026706677       19.71648396947109
H           -3.78908031976795       -7.20214320165916       21.62664687563660
H           -5.59803763386515       -4.51386117635916       24.18010086958635
H           -6.57995140023386       -2.90774511256337       25.76619258977019
H           -5.17451651143369       -1.14219785492202       26.78214523840520
H           -2.77787278473465       -0.97736360891219       26.18463382592253
H           -1.79634544943839       -2.57231324120032       24.57468138866481
H           -0.20599584852974       -3.49966106834190       16.89621321848327
H            0.10901325352861       -3.73355210831858       14.45869868801647
H           -0.41611006066689       -1.83945618924592       12.95444635136232
H           -1.27587391935163        0.28199743024899       13.89599924481774
H           -1.62871849779446        0.50740104520490       16.32290236903629
H            0.88047890603775        0.45735300230019       18.70200262417738
H            1.04432320037033        2.83796146330962       19.30576292998307
H           -0.98795552781342        4.09447241911691       19.96547715668339
H           -3.18251289830747        2.94922188168538       20.00249876402793
H           -3.35889484288861        0.58748003892821       19.37530292288614
H            5.32335345259854       -6.33562161351373       14.77819033447321
H            5.55398520285809       -8.73849497728850       14.29843488258749
H            4.54901275245350      -10.41400771299926       15.81820665273500
H            3.29703534735372       -9.66897193761042       17.81942937950695
H            3.05497394397903       -7.26139638413143       18.29966407605641
H            4.90569106187720       -2.20204180326522       16.24856186996050
H            7.13802811525888       -1.18154263290411       16.19068230239218
H            9.14016674960462       -2.52802858889155       16.75747232223791
H            8.88142439871681       -4.91385506218985       17.37592981664636
H            6.64975685418630       -5.94353813727104       17.42252244996495
H            3.52003379401911       -6.87746648301904       24.88963045983716
H            5.22393558048205       -8.58120088807405       25.40330855619881
H            5.61041062185782       -9.28299704840940       27.74579098739762
H            4.29172407138760       -8.25590219266678       29.57196947749752
H            2.61933366872318       -6.52740436049992       29.07106106611225
H            0.67769420838286       -7.70474853334748       27.88829481360236
H           -1.57960579425159       -8.21683819691860       28.71555987626305
H           -3.40901981500212       -6.56954082383649       28.45613130268010
H           -2.96205635673161       -4.39670240308795       27.35053383968311
H           -0.70483720285256       -3.88032102345309       26.51401687405835
H           -0.24413502884171       -1.49714095764720       25.82829371403073
H            0.19967752604264       -1.33284903679242       28.24648418006321
H            1.29313587394853        0.68855898438138       29.17059712650239
H            1.90253915511320        2.55437690836556       27.66295315750682
H            1.40269575497033        2.42726670744382       25.26677216862318
H           -1.83807438504409        1.85809819422368       25.16547293441950
H           -4.27802037232099        2.12478877182170       24.96782433498264
H           -5.52988709045186        0.88212331559734       23.23146452511940
H           -4.32475354529123       -0.63133291055155       21.68929214798847
H           -1.88211783594830       -0.91241992831389       21.89065504768875
H            4.49061898206201        0.66988450397343       22.07031115663471
H            4.23901960218884        2.79007164208492       23.29761065076890
H            3.63697876745229        4.86451550040337       22.08163779162565
H            3.30967003013451        4.80089509122519       19.62895701954202
H            3.58964375468478        2.69402637127780       18.39436676081708
H            2.27180799685430       -1.15321018520855       17.59243959137441
H            1.76047006906125       -0.85724182752948       15.19820845396816
H            3.17251115628061        0.61749376304458       13.80140757008228
H            5.09235415966158        1.80645936171170       14.81533091350322
H            5.59945552922848        1.53091591680383       17.20234930395568
H            7.60840413953404       -3.80680757835334       19.71375188324795
H            9.27564308324946       -2.00007103834909       19.55948310620083
H           10.65356739573355       -1.41230136612918       21.53580962444835
H           10.30142447360735       -2.60189692209378       23.67706941586746
H            8.65035244802235       -4.40778536552515       23.83659469386553
H            5.43311552044472       -7.11718799364240       19.71525613271342
H            6.21613862101501       -8.77900103054939       18.06709371710782
H            8.62863413958125       -9.28746884953603       17.86746226973803
H           10.25625874271442       -8.14078317128162       19.33946091365836
H            9.47661946957627       -6.51695131717401       21.01685630613393
H            7.02510475578629       -1.54750748268014       22.74299335389945
H            8.54498384144985        0.12474935444295       21.75436457978158
H            8.54459651509960        2.45355808690793       22.59479893071671
H            7.03091580009888        3.09164806939932       24.44661488068327
H            5.52802433732257        1.43468082206515       25.44605269264428
H            7.83957486888018       -1.30636681494185       25.89149931382857
H            9.26368608684682       -2.97007628638081       27.01214675175626
H            8.42487287279925       -5.26505791623618       27.40880080799717
H            6.14661663197847       -5.88994007669090       26.66447727178889
H            4.73544894004243       -4.24124885107727       25.49623362808518
H           -2.97545274663001       -6.78937521922648       17.19977223483787
H           -3.06139694806914       -5.74706194304546       18.62706964074007
H           -2.01179618920532       -5.30976790593260       17.27966806320757
H            1.91142576700177      -11.05309571272380       20.90692452203481
H            0.85125659948338       -9.70852171167544       20.45679200581323
H            2.55286979728276       -9.68409514890939       19.99391766751629
H           -3.99341348953990       -6.71079435313145       24.32653058907750
H           -2.44618336798514       -6.29819442630352       25.07691003850821
H           -2.47244348787290       -7.24286718089676       23.59068097426295
H           -3.66678507147185       -1.36886405378300       18.04013555540355
H           -3.35928664345409       -1.88397622462401       19.70890030856651
H           -3.07846924790830       -2.99932412247069       18.37696690662989
H            3.68597226373256       -4.33757660095296       14.56164458476197
H            2.15243757179165       -4.76517672204726       15.33226924441002
H            2.84801522230564       -3.16850437363310       15.59260032984578
H            2.10769190970432       -4.18196819825859       28.70852940309070
H            3.31775326068310       -3.66846144163545       27.52519272455737
H            1.67971631727893       -3.01509081076841       27.45285819051777
H            0.26796894234273        2.68130452206647       23.20320934355244
H            1.80063104802320        1.85243153060675       22.87030945670628
H            0.46442573857803        1.72696904876582       21.73157344139428
H            6.67234167951170        0.51408615236079       19.00565572493095
H            6.41415808163780       -0.45396093156652       20.46026496763520
H            6.38811251432024       -1.22958786126595       18.87672073530450
H            8.14377360910374       -6.84332232503143       23.41051645504564
H            6.82445100159189       -5.95214416980722       24.18965713287933
H            6.48234660996559       -7.43607004978758       23.30324112500033
H            4.85672272794600       -0.30317951284206       26.96677266031771
H            3.53143897133833       -1.43417317628029       26.68027159376965
H            3.54272396894474        0.11785981630677       25.85223755625963
