252
 energy: -493.979724156284 gnorm: 0.000042352671 xtb: 6.5.1 (579679a)
Au           0.00917640517859        0.01273586919116        0.02102308902157
Au          -0.89773555869249       -1.24469581251509       -2.04975699423106
Au          -1.81193626281830        1.47141705903355       -1.29900840521134
Au           1.03115797093467        2.14459767823869       -1.43100094131885
Au          -0.15381674757008        2.42402094314309        1.22758352889051
C           -3.18132643212909       -3.43703762521733       -3.60286483436645
C           -3.94051673002746       -3.10067710171883       -2.47811180492798
C           -5.06045818961329       -3.83382397192349       -2.12375043350570
C           -5.41036808269730       -4.91664451403635       -2.91388517700248
C           -4.67758874261453       -5.28802839146645       -4.02915041522660
C           -3.55757755792066       -4.54496108043632       -4.36650418368482
C           -3.02403027268249        4.19932547832799       -3.35787994534819
C           -1.70113314133407        4.23135520092446       -3.80524551294012
C           -1.21842516700598        5.30038260252339       -4.54029658621398
C           -2.08425668076766        6.34187364018495       -4.82906272284644
C           -3.40074075351202        6.35115985810045       -4.39388842070034
C           -3.86511579428041        5.27758578805882       -3.65239889645607
C           -4.73049105601793        3.41304148728436       -1.17343321482662
C           -4.27322653050702        3.68123934582470        0.11915286098258
C           -5.13211942983085        4.14740949046933        1.09948450974733
C           -6.46110068327978        4.34868156358923        0.76658838880902
C           -6.95315397003690        4.09042166374446       -0.50249808279301
C           -6.08155434084715        3.61609875067342       -1.46949945507577
C           -4.56640793537243        1.76280315189834       -3.48755292719936
C           -4.93635641573843        0.49236518350329       -3.03271951740621
C           -5.66474535372892       -0.36851097333176       -3.83477858721185
C           -6.01320288375285        0.05586958219741       -5.10675813790180
C           -5.66718255670052        1.30505308749816       -5.59168156544181
C           -4.93795994384207        2.15557205246528       -4.77459019957484
C           -1.67453209024875        4.57231554629476        3.53433956074252
C           -2.55799575537309        3.49400850458396        3.61927008537263
C           -3.42853347614768        3.35545846884502        4.68513354987335
C           -3.39759236664151        4.31438912442661        5.68248768907762
C           -2.53260493820186        5.39748182477429        5.63871375311156
C           -1.67196278432655        5.52371240718244        4.55951639530311
C           -1.34061940023646        5.79733832008741        0.95013150637091
C           -2.56327551194021        6.42108385885417        1.21228558678210
C           -3.17968262299425        7.20653752806052        0.25058059377150
C           -2.55414184253914        7.36686537405565       -0.97371848773351
C           -1.33618034958833        6.77551044713879       -1.26418462104543
C           -0.73947752416860        5.98244305445624       -0.30016762611601
C            0.92039114815062        5.47092095772577        2.70989492229165
C            1.86304565566796        4.68050621323111        3.37345779330679
C            3.03040593724181        5.22646383916679        3.87574438571764
C            3.25563960557643        6.58004271337602        3.68190193896721
C            2.35743154666499        7.39142893170046        3.00981185300465
C            1.18468781070445        6.82995639595819        2.52790549703512
F           -6.47284393400165       -5.64068859516173       -2.57359374361292
F           -1.63679767600183        7.37474106992223       -5.53590608116099
F           -7.29469215043946        4.80134288054748        1.69824208911748
F           -6.68494911240652       -0.77916732985983       -5.89862819179576
F           -4.21167999994289        4.18808392379445        6.72653934394758
F           -3.15442425252919        8.10307171520856       -1.90900976603333
F            4.38433535970444        7.11032583280651        4.14643545411887
I            1.85092970534942        4.39741378663004       -2.52791693838764
P           -1.72622307044497       -2.39351599113025       -3.94183557771494
P           -3.52469317710051        2.75571761829455       -2.36963181388016
P           -0.56367153824469        4.61511246724714        2.09491012103353
Au          -1.16584540382766       -2.29725384391455        0.70648761416769
Au           1.96810459472835       -0.57384198577028       -1.71248942344543
Au          -2.46888469436010        0.26554162720829        1.24285598787491
Au           1.70939511085854       -2.03324894939365        0.80877935443919
Au           0.02118978625157       -0.15503824925752        2.71706088863693
Au           2.34864445148652        0.80368853990978        1.11558877308069
C           -0.52470175483434       -3.52733060836311       -4.71124525780958
C           -2.25700956392287       -1.30393795800261       -5.30280801596164
P           -2.08853775136136       -4.40929581918616        1.35207700427843
P            3.72721474679765       -0.96115067198729       -3.28867276951603
I           -4.63707123094407        0.40815037751002        2.73574733394289
I            3.58821972422769       -3.69317528370066        1.62397323010821
P           -0.07814909152611       -0.62007869186759        5.06108869087578
P            4.55702900214344        1.43351101825034        1.78419152347550
C            0.51463058635050       -3.98159387843471       -3.89392544180992
C           -0.56383016094728       -3.93695093486616       -6.04649251417884
C           -1.69820977387066       -0.02267483101025       -5.32891315719830
C           -3.18948321200998       -1.65548230390850       -6.28215134940794
C           -3.71038172760518       -4.42118994744519        2.17716246005627
C           -0.98850749466724       -5.31412211782729        2.48704076445976
C           -2.26636554112819       -5.56631544191187       -0.04451598892176
C            4.93897193416207       -2.26730295343540       -2.91867196097676
C            4.73159998145033        0.53220715590028       -3.56797789041983
C            3.11392063260401       -1.35250525786498       -4.95945172939491
C            1.50306477344536       -1.26483225170862        5.68708679727477
C           -1.31418603443033       -1.84994782924332        5.58211419722285
C           -0.40326945725155        0.83577632188919        6.10408530064176
C            4.86710090370207        3.20307912820330        1.50084040323952
C            5.92407124952604        0.58564572899814        0.93322399806761
C            4.90059157429123        1.20512321919080        3.55699947268239
C            1.48743302571871       -4.83826023872428       -4.38088063266626
C            0.39902180523411       -4.79699686616760       -6.55009694163992
C           -2.04031759624866        0.88867238014294       -6.31367269782837
C           -3.54098848789076       -0.75774785977890       -7.27758923282043
C           -4.51860905486414       -3.29586577107600        1.99930820332462
C           -4.16475925936770       -5.45878586094027        2.99798528077012
C           -0.16204032088419       -4.55727081785576        3.32126388114510
C           -0.90012729722114       -6.70859419429894        2.53060264746503
C           -1.21067042953157       -5.60500238698762       -0.96198860605055
C           -3.40454489161027       -6.33655561759882       -0.28959117484478
C            4.55185383768048       -3.24783168454625       -2.00220161632712
C            6.22754404223753       -2.31754940473148       -3.46077092135450
C            4.84192471671187        1.43981798848993       -2.51163114486695
C            5.35067136255351        0.83129238283027       -4.78517093579247
C            2.02525706496593       -0.60200947136177       -5.41696077996131
C            3.60394191666698       -2.38896759171208       -5.75594938599617
C            2.32538751756966       -1.92240175726269        4.76955907980353
C            1.94893077886727       -1.11376011203355        7.00410607274490
C           -0.98060481763080       -3.02752300800745        6.25644057541570
C           -2.63759554404884       -1.65654121085198        5.16972910808422
C            0.20376071391657        2.03114095923259        5.70875830989558
C           -1.23460055541298        0.83776030896484        7.22606625748999
C            4.12285000007962        3.82207614203953        0.49416247045881
C            5.76904248925922        3.97304813989162        2.24232750127794
C            6.90191166804333        1.26250288146738        0.19948947467220
C            5.90995890333706       -0.81375962904972        0.91456254933046
C            3.85301606821954        1.49642744690847        4.43528829889080
C            6.10672533063253        0.73017385170744        4.07624121119121
C            1.40669206990495       -5.23396443521549       -5.70607810603784
C           -2.95728507545848        0.49843517970177       -7.27603204665538
C           -5.75768485520523       -3.19936124300845        2.60882200250901
C           -5.40546203020900       -5.38214619920225        3.60855518222479
C            0.73037851128742       -5.16556757180538        4.18707497674172
C           -0.01848855646398       -7.33386722495238        3.39749665566758
C           -1.27925700549398       -6.39550431549435       -2.09572596530469
C           -3.49005561783178       -7.13356973990571       -1.42106807281808
C            5.41387406978042       -4.26692944714901       -1.63547506832267
C            7.09966041383236       -3.33500176190638       -3.11118088361073
C            5.55549148999664        2.61760715831680       -2.65198157506088
C            6.07597338671318        2.00163153605115       -4.94008746081646
C            1.43841185158800       -0.86941285548989       -6.64132430786211
C            3.02718868470124       -2.67084932847489       -6.98504755983665
C            3.55814180687523       -2.42978032321345        5.13832559052160
C            3.18439558043422       -1.60980254557074        7.38994900068267
C           -1.93954356613863       -3.99603901473288        6.50979736706177
C           -3.60802856618496       -2.60811492841144        5.42877163976185
C            0.01930194263884        3.20002555175816        6.42484233803363
C           -1.44471131242607        2.00378835660314        7.94651423951464
C            4.26622575528693        5.16895017388257        0.21402974398606
C            5.92098589698515        5.32562500385380        1.98012258195495
C            7.84181243552430        0.56458544467908       -0.54298529676091
C            6.85086465642907       -1.52345828517987        0.18974562143303
C            4.00255913615179        1.35177154150656        5.80269408997747
C            6.26929220512932        0.56282259235862        5.44312597466535
F            2.34551871650250       -6.04137516127912       -6.19144967927557
F           -3.30888741542746        1.37082003610539       -8.21635791961732
C           -6.18331717077855       -4.25347351158915        3.39966847239482
C            0.78155830414516       -6.54914194165801        4.21206703155995
C           -2.42587459736174       -7.14423105221163       -2.30579741276127
C            6.67536030254229       -4.29589360801228       -2.20605647541052
C            6.16589888378235        2.87460667613335       -3.86807090198105
C            1.95114222133385       -1.90722077736407       -7.40258287382607
C            3.96832410093124       -2.26068287831412        6.44919549127591
C           -3.23791502336925       -3.76859777223116        6.08740253815545
C           -0.80730650854372        3.16242250244204        7.53650038836894
C            5.16635982171411        5.90071699540979        0.96868009013662
C            7.79647594572024       -0.81882006434187       -0.53606694721627
C            5.21584325783342        0.88418825005262        6.28205330316015
F           -7.37169952279845       -4.17725941473741        3.99009445271683
F            1.63091815557808       -7.14509574322381        5.04344204247547
F           -2.51506357806019       -7.88190719059934       -3.41190213029164
F            7.51418472825544       -5.26928706405088       -1.86614433339061
F            6.85866774092964        4.00009388758195       -4.01334875428519
F            1.37095501845163       -2.19411799667396       -8.56733925798695
F            5.15952825127920       -2.72240925318732        6.81875811906333
F           -4.15814809655114       -4.70724683036452        6.30925160881974
F           -1.00449039177579        4.28632850620981        8.22126414412475
F            5.30354044449178        7.20174661280628        0.72943461266733
F            8.68455917980090       -1.49318944463271       -1.26657231618600
F            5.36272316539913        0.72523599241813        7.59510551849635
H            8.59541181192486        1.08159639949108       -1.12295714397964
H            7.19615175278154        0.18766656662413        5.85737229700973
H            6.60610976879691        5.93523687898525        2.55506591536392
H            4.43950496883625       -2.98747866860089       -5.41188941826239
H            3.39578885490996       -3.47630225606040       -7.60703737694629
H           -1.72651295662247       -0.07720734570197        7.53528724162454
H            6.35019360465483        3.51288287169706        3.03363627131734
H            5.62871990740309        3.33258800488096       -1.84262479487966
H            0.82166177313085        2.03857947605476        4.81797425597877
H            2.00473553244519       -2.03692960439818        3.74007752901640
H            3.40747433035824        3.24612391019596       -0.08227997289586
H            5.11559432129253       -5.00310002391180       -0.89934364381296
H            8.10195537355513       -3.37936521000065       -3.51696474794403
H            3.54654005571112       -1.48826684480156        8.40269876291881
H           -4.63171946268178       -2.45907501041581        5.11011014309276
H            6.92753153817042        2.34602966235473        0.20235136501613
H            1.32882540344213       -0.59900316800430        7.72946890645779
H           -5.76389707606482       -6.17436606371071        4.25286597361790
H            3.67593098428627        5.62224200678619       -0.57569867142536
H           -6.36207969865842       -2.30849740500679        2.49102299766933
H           -0.46913033031076       -6.42722516228831       -2.81293489749879
H           -4.37070208028251       -7.72947687728477       -1.62317851523852
H            6.56067723569810        2.24295376252361       -5.87734951521849
H            1.38575843800065       -4.58358040745955        4.82220335231913
H            6.84047904159586       -2.60575819404308        0.17495184518214
H            5.14510613894280       -1.36922220917608        1.45481533766722
H            0.03944341670228       -3.19400108959314        6.58275594295268
H            2.90477687784505        1.83224262829422        4.03103155561374
H            3.19556675816810        1.57917240501260        6.48750327339966
H            0.48978033997600        4.12772394532514        6.12494531515069
H           -1.68685967144206       -4.91575344276373        7.02151658793410
H            6.92275687126735        0.48318790578398        3.40702338147364
H            0.05748739511308       -8.41274680231211        3.44087108957350
H           -2.09320280347473        2.02030474989900        8.81288476882224
H            0.59280209552409       -0.29688103389273       -7.00028162498031
H            4.17462150324859       -2.93813463966398        4.40407664051479
H           -2.92322037829950       -0.76154679754080        4.61944552373359
H           -4.65015292769545        3.13194613959058       -5.14690600155365
H            0.47175977998707        7.45277278362153        2.00008489780478
H           -4.97493032736855       -6.15123701031088       -4.61039528972640
H           -8.00084931194064        4.25277423660397       -0.72069733711821
H           -3.63765425242036       -2.25725038143844       -1.86757045106608
H           -3.22961525622892        3.51243374135228        0.35952805353165
H           -0.98783801242455        6.36380358680360        4.51618666614238
H           -2.56541560012407        2.73761839140310        2.84236195101582
H           -5.64615652011820       -3.58368435039538       -1.24853609628912
H           -4.03928404669773        7.19508872420601       -4.62031926702116
H           -4.78677031041210        4.33930343342176        2.10721995926778
H           -4.64036920762390        0.17697413597933       -2.03791249013230
H           -0.18233737997220        5.33063573856896       -4.85400701532377
H           -2.53162842603105        6.11985004968983        6.44479333216490
H            3.76218324666417        4.61944352997660        4.39337480826543
H           -4.88679752065874        5.28280780489527       -3.28969128197354
H           -1.02661514242221        3.42097633618197       -3.55214218692753
H           -2.96307269813807       -4.84195369373721       -5.22268260375268
H           -6.45721865039115        3.39220850687162       -2.46153296623276
H           -5.95056468634954       -1.35480249139827       -3.49238088521042
H           -4.10543558750450        2.50813477546518        4.72308831944123
H           -4.13213247803782        7.68386721584480        0.44182906683202
H           -5.95460885258117        1.59785671601308       -6.59325277877395
H            0.19991235995571        5.48890903998478       -0.54385162699728
H           -0.87172291855505        6.91907406605706       -2.23132930353342
H            1.67505817199898        3.61863428126041        3.48500250149411
H           -3.04313009018464        6.28844360733518        2.17501141520657
H            2.57780379825017        8.44153656091050        2.86796000018438
H            0.56382495865733       -3.64598418914105       -2.86397323782604
H            2.29965152387828       -5.18526074998943       -3.75517729610523
H            0.38141187321108       -5.11627834787413       -7.58408747941561
H           -1.61808892007611        1.88514749777572       -6.33297982645559
H           -4.26618040614048       -1.01763149298634       -8.03781513988176
H           -3.53918314891641       -6.32742442246712        3.16985445165894
H           -0.21523465701290       -3.47511497424588        3.28238939925028
H           -1.51871303097958       -7.31029129029079        1.87433087444029
H           -4.16375958346954       -2.46693866830138        1.39705241645036
H           -0.32853997899658       -4.99957327231899       -0.78303997863408
H           -4.23615079054528       -6.30987234661717        0.40501485042967
H           -3.65894970031757       -2.63210013989176       -6.25976899392796
H           -1.34229676457766       -3.56944618175486       -6.70498491094209
H           -0.99353923730487        0.26366848496747       -4.55606048596761
H            3.57004012794302       -3.20043838114957       -1.54443954025247
H            4.35238134202179        1.22090203784704       -1.56938670709796
H            5.25666327680433        0.14817116247364       -5.62176477347176
H            6.55493655441534       -1.54937469158682       -4.15224797711241
H            1.63252502605372        0.19698829867105       -4.79721429285622
