252
 energy: -398.127377136326 gnorm: 0.000038222718 xtb: 6.5.1 (579679a)
Au           7.79445408238073        6.63527203754356       16.87120132572696
Au           7.21147147113420        8.12048766847745       19.05986468753087
Au           9.52846942008635        8.64987032083553       16.86952693274256
Au           9.79586461935441        6.46894673811196       18.74515779584116
Au           7.20509621199155        5.15483951706509       19.06592691847899
Au           5.14880464009350        6.70565201032818       17.47693148219701
Au           6.67630876835260        9.09770779299495       16.35636058609699
Au           9.34411146682682        6.54355799510922       14.78436083779950
Au           9.20408839737451        4.37334474952487       16.77499387622410
Au           6.36329227845899        4.37071342171118       16.24651336639581
Au           6.40853879684862        6.81148823631877       14.60500634026532
Cl          11.38487737440305        6.31210758090594       20.64505886490998
Cl           5.50115418848422       11.27129254886397       16.11733184150930
Cl           4.88738883148287        2.39653689740980       15.93999432232429
P            6.92122099533129        9.69066981547460       20.82931352118030
P           11.04293467039601       10.46680713845568       16.99905333151521
P            6.95016927447665        3.71314143054657       20.94800454706576
P            2.78002023567300        6.68064664335979       17.74474767350905
P           10.76050558775645        6.48718946445214       12.88676712083435
P           10.38590001929478        2.31981307922383       16.76348365864256
P            5.07636954580069        7.00106849682627       12.65403256762353
C            7.82339097946771        9.22891920009061       22.33750521497372
C            7.45852473869063        9.63187854829746       23.62455573421964
H            6.60723656629586       10.28846000471429       23.76740656448473
C            8.17735493432099        9.18608595070231       24.72371085077704
H            7.88324141873301        9.50079074503231       25.71903547921046
C            9.26403457871376        8.33630417989740       24.55603916205511
H            9.81502765465414        7.98652323189665       25.42169859446749
C            9.63694936804020        7.93275482575544       23.28168291812546
H           10.47811441300183        7.26611982738968       23.13011123577284
C            8.91781104335116        8.37560872965443       22.18449842856209
H            9.20578453576163        8.04687924430517       21.19349686431270
C            5.18816321265240        9.90896495954346       21.34574493891440
C            4.71097510875008       11.07376134191083       21.95100113499622
H            5.38490964596109       11.90363003340231       22.13169782598817
C            3.37506687447457       11.18149255948779       22.30678799910356
H            3.01498097439720       12.09282918865184       22.77095474867702
C            2.49897991599348       10.13072581395165       22.06855392779682
H            1.45483278172000       10.21965727954983       22.34615185851351
C            2.96079788425606        8.97091702904620       21.46186586387057
H            2.28160846849415        8.14985254775473       21.26136667471783
C            4.29266541877830        8.86862937552957       21.09562107122529
H            4.64702140347108        7.97579922751126       20.59363409615495
C            7.43421608370419       11.38743486660299       20.43290494256336
C            6.84051809890739       11.98316973355116       19.31535549008777
H            6.08511913590173       11.44620240795383       18.75277361518755
C            7.21226208643771       13.25524803042990       18.91589680657474
H            6.74162801083756       13.70262260582194       18.04834682768490
C            8.18639628611119       13.94809599167079       19.62345501438777
H            8.48288058672140       14.94269770529518       19.30992555945342
C            8.78266049287980       13.36319443604247       20.73179139419710
H            9.54216193713977       13.90179977937008       21.28733904461766
C            8.41658146478619       12.08667922403195       21.13363305163234
H            8.89628330568162       11.63358861272937       21.99408095662887
C           12.69863215029863       10.13909940760548       16.31445538436783
C           13.81004829753103       10.94384454026592       16.57602174798013
H           13.71038136430918       11.81054873301384       17.22010346522870
C           15.04454448051541       10.63337188203682       16.02674622851912
H           15.89978683526494       11.26669117654967       16.23439311485629
C           15.18996354289846        9.51303223087980       15.21875986767472
H           16.15777606402249        9.27146510960958       14.79415888473039
C           14.09561934754375        8.69833938885136       14.96425713197403
H           14.20309403680824        7.81609498512190       14.34270815494862
C           12.86088945610704        9.01151443122731       15.50929378664790
H           12.00634182562130        8.37287005738056       15.31290104123041
C           10.42223096904129       11.91996838994713       16.10398487364057
C           11.18584070360567       12.71297390381035       15.24585903782543
H           12.24860040756847       12.52811558461765       15.13491514191675
C           10.58669824602565       13.73481755040396       14.52217247946678
H           11.19007189776056       14.34510557930449       13.85897729055495
C            9.22229795544693       13.96857371141577       14.63456864182607
H            8.75894276438899       14.75793220439475       14.05371339252071
C            8.45285037821879       13.18239960461647       15.48184674807822
H            7.38302820941854       13.33642731682045       15.56278950272311
C            9.05110159446038       12.17019128673882       16.21133643883820
H            8.44488091684221       11.55337906856660       16.86482649910075
C           11.38972191570941       11.03828725158426       18.69073964507178
C           11.65426203659676       12.37098962138110       19.01206178343806
H           11.63089665710121       13.12971183466435       18.23752973821585
C           11.94003856722645       12.72857030686970       20.32150473746654
H           12.15535528457398       13.76428575001319       20.55985238086128
C           11.94975669076620       11.76712622940421       21.32427456015452
H           12.16889708184582       12.05345138012458       22.34667194286894
C           11.67389869524985       10.44171265334695       21.01579523856983
H           11.67287838633648        9.68616276085291       21.79287529821584
C           11.39868873248100       10.08038263031963       19.70742034668501
H           11.19046868746300        9.04279912932494       19.47278556197326
C            8.39576543556189        2.68539649008899       21.34134041983856
C            9.61082532626884        3.34934313787678       21.53964838157864
H            9.65239915564606        4.43145356038733       21.48466686398636
C           10.76662400965070        2.63515169707379       21.80499225715745
H           11.69977133819860        3.16417528413752       21.95882494265857
C           10.72692846015168        1.24817571293791       21.86940432983088
H           11.63176207294859        0.68661702757504       22.07277888873688
C            9.52620180672745        0.58139034187120       21.67022014179367
H            9.49097545624461       -0.50107554745679       21.72157736250665
C            8.36566550169547        1.29232725179456       21.40073407837844
H            7.43441104001680        0.76180087795311       21.23629588971685
C            5.54744794172112        2.57039608903354       20.77922797289768
C            4.88169416667107        1.98429618091174       21.85901865575192
H            5.21468551989963        2.17889263212398       22.87267946466580
C            3.78808304054018        1.16040163094323       21.63842198239217
H            3.27543145829076        0.71358185386031       22.48325192651308
C            3.34462118408616        0.91119666572000       20.34511370643176
H            2.48426765272469        0.27184531187340       20.18283025508202
C            4.00024087421527        1.48631157852272       19.26571163426136
H            3.66677245430947        1.30880199932512       18.24974020931985
C            5.09067464680454        2.31086317232539       19.48591669283397
H            5.59032103920654        2.76652064026605       18.64002526237144
C            6.65982805919904        4.60124716783267       22.51204505706767
C            7.00711568849030        4.08376692883680       23.76195658202627
H            7.47362194833045        3.10758591202452       23.83190521472352
C            6.77406207570116        4.81920720281021       24.91421632537298
H            7.05387042173978        4.40935042578935       25.87825521630814
C            6.18837943827688        6.07590303043239       24.83757400726240
H            6.01023858667255        6.64908394696325       25.74031056211314
C            5.84311459788946        6.60200475404926       23.60044662507651
H            5.39474911411332        7.58671951655018       23.53006658372881
C            6.08774087762532        5.87225581214849       22.44893729305188
H            5.84710914707791        6.29572045867211       21.48068427118384
C            1.82496362619045        6.01125493503575       16.35128676034686
C            0.83580978002600        6.72656403050106       15.67651766987444
H            0.58026699873449        7.73133656643128       15.99402268678519
C            0.17573124336276        6.15545785960819       14.59819428573791
H           -0.59723241415691        6.71678320294797       14.08533081058805
C            0.50305349306845        4.87521089904167       14.17413210305776
H           -0.01157370534626        4.43648064016668       13.32671513583427
C            1.49236718230953        4.15930523616283       14.83600591336465
H            1.75390936473608        3.15931409964875       14.51050823471783
C            2.15182441840526        4.72309972747346       15.91490063890967
H            2.92680731079591        4.15889576899534       16.42197044031124
C            2.10422993518691        8.33654363561128       18.06722566334828
C            2.86136749635972        9.42678392927554       17.63471949971390
H            3.79197531149085        9.25691700143450       17.10751186078235
C            2.44672741155368       10.72541915037707       17.87718147759193
H            3.05968194210898       11.55052383290305       17.53307539031834
C            1.26292615476458       10.95174258340092       18.56507132473753
H            0.93542625156163       11.96509063104901       18.76800178650297
C            0.49791525791205        9.87635723460178       19.00034130644109
H           -0.42665137380797       10.05125481083225       19.53959553767028
C            0.91208017730086        8.57546929288615       18.75568630687178
H            0.31153869390206        7.74341947413165       19.10682241101318
C            2.22017802714469        5.65441834616877       19.14162976250661
C            3.11565115326686        5.42338393641714       20.18635707891634
H            4.11332235631296        5.84320638456806       20.12937330142546
C            2.75306107210407        4.65342170561993       21.27906004181203
H            3.46231492383404        4.48906798318459       22.08256697068773
C            1.48913421918644        4.08233974799004       21.33217596924005
H            1.20573757702553        3.46864760346147       22.17969330901836
C            0.59385964303969        4.28884819658393       20.29096585480210
H           -0.39071537938081        3.83593904644120       20.32470010556494
C            0.95278068694664        5.07077681325269       19.20346090782076
H            0.24981574750853        5.21838945762912       18.39134105156985
C           11.45013245478905        8.11158550806713       12.44032276126642
C           12.70850011692984        8.29196889939834       11.86324957782927
H           13.32013977150820        7.43049510849644       11.61908179763016
C           13.18704539421103        9.56996881512628       11.61342124058732
H           14.16876834912238        9.69829971897803       11.17146336357260
C           12.41847251810145       10.68064128479116       11.93453578228112
H           12.79977612633054       11.67759948720552       11.74560302897058
C           11.16399385469539       10.51293330697512       12.50586976628919
H           10.56316115967289       11.37685132271611       12.76580484588725
C           10.68689250196592        9.23784707981819       12.76106165262890
H            9.71663224494639        9.10819777012165       13.22809852794128
C           12.21180874794484        5.40547232363263       13.07879560994781
C           12.71113604066702        5.23509384200981       14.37327384611474
H           12.24686589920702        5.76612280819287       15.19723119178437
C           13.77678744075569        4.38389582238073       14.61487937842942
H           14.14910780022245        4.25713886073321       15.62495341860568
C           14.35293777648304        3.68144935577761       13.56465419362658
H           15.17857791413065        3.00473930056752       13.75280838127335
C           13.86475697666661        3.84072075561000       12.27481635025745
H           14.31002708394892        3.29007966749101       11.45377556391239
C           12.80099045522872        4.69699610924164       12.03007803190917
H           12.41931093218798        4.80714511057153       11.02110141154180
C            9.93893583521842        5.90152095880148       11.37168390951849
C           10.26744167343329        6.34038827387408       10.08770347709549
H           11.08227088603486        7.04206590430635        9.94781919971155
C            9.54638623944442        5.89392479895610        8.98981335766609
H            9.80586892071204        6.24684515459282        7.99800144043019
C            8.49193541475843        5.00668314580897        9.15838957283009
H            7.92544796025229        4.66733089218484        8.29876786222077
C            8.15843918529879        4.56109106600672       10.43056578682871
H            7.33090048172011        3.87472001985317       10.56849130402311
C            8.87408908823327        5.00966176462181       11.52844018378097
H            8.59879386197682        4.67885907714783       12.52400440395930
C           12.00720092267636        2.47773679718200       17.56656165902158
C           13.19579977442170        1.93455372038734       17.07594301352572
H           13.18354658365981        1.30602531936668       16.19235741541591
C           14.40057273686622        2.20569677032356       17.70979903858414
H           15.31779806255737        1.77772079507972       17.32009255398235
C           14.43651554245100        3.02870544274510       18.82803034254047
H           15.38345603641631        3.24834984146115       19.30786631422443
C           13.26051337859533        3.57793829915760       19.32122572506492
H           13.27377247710184        4.24098990276721       20.17856694506452
C           12.05795109724662        3.30023088697693       18.69556182985990
H           11.14369630058281        3.73848800057007       19.07870101739719
C           10.72436634103280        1.63296132280713       15.11063308135137
C           10.57122601305592        2.47445754916633       14.00865025468180
H           10.26262438361037        3.50250080392232       14.16531886130474
C           10.80367057830061        2.01269424039628       12.72317898804794
H           10.67672995906024        2.68098144890137       11.87850330237596
C           11.19443667292696        0.69634290909218       12.52181063863144
H           11.37724682917126        0.33123210651796       11.51754174741527
C           11.34119589339215       -0.15498653198712       13.60935668090581
H           11.63776996617544       -1.18633305685656       13.45439343837643
C           11.10364685829635        0.30589706368502       14.89513276510184
H           11.20320029910824       -0.37138733916247       15.73615152393092
C            9.53814972098756        0.95606949936022       17.61817526868771
C           10.21108842012115       -0.05481783310509       18.30699924392948
H           11.29300980778997       -0.03381484061527       18.37846123373938
C            9.49865927386472       -1.08290359521634       18.90663157872490
H           10.03041473225069       -1.86979419298656       19.42997260963445
C            8.11127530430185       -1.10575982331340       18.83988274337137
H            7.55956163321327       -1.90925062832356       19.31453492210478
C            7.43328499703218       -0.09634637602876       18.16947476730061
H            6.35065843958507       -0.10278209668764       18.11877274213282
C            8.14270847149418        0.92558761763587       17.56070842295683
H            7.60736948005119        1.70691293619367       17.03331677723337
C            3.50349879375317        7.88069410566017       12.90001019581601
C            3.48737061530441        8.92759376829430       13.82477111513620
H            4.38879308602209        9.17808879581864       14.37213620716044
C            2.32970110861166        9.65385084309723       14.04917387048804
H            2.33420355761780       10.46040598551381       14.77315300672855
C            1.17250199652009        9.34585727135497       13.34637482638283
H            0.26505610603183        9.91405987223415       13.51667220601688
C            1.17648905724974        8.30438171125561       12.42703272969546
H            0.27390106191634        8.06165663463996       11.87722787176071
C            2.33169104859095        7.56843885445076       12.20819446746485
H            2.32251243545691        6.74539719250205       11.50205610723475
C            4.63363288938841        5.37099241759799       11.98668044626646
C            4.34613013176045        4.37736886716331       12.92673032966771
H            4.32745639795241        4.62889123427411       13.98080470279749
C            4.10238602279009        3.07332341545086       12.53326660524668
H            3.90935025178282        2.31757104476137       13.28588315146536
C            4.13631698449394        2.74297896780358       11.18507017696111
H            3.95452075016390        1.72184886088239       10.86974666420911
C            4.41578162802529        3.72108055358568       10.23939952114472
H            4.44610342038902        3.46564486643763        9.18574976139620
C            4.66992487044296        5.02733214634780       10.63424523218316
H            4.90546767289366        5.77780723979345        9.88775401776294
C            5.85166523490569        7.89892109715974       11.27183295156417
C            7.23006251609473        8.10802784337839       11.31970031952281
H            7.79427101560605        7.73159971635060       12.16626308566596
C            7.88156509000627        8.79090129635463       10.30536800970574
H            8.95348117645587        8.94612040070461       10.36118944263822
C            7.15917726906136        9.27633845156007        9.22433071500737
H            7.66521838001418        9.81133057909064        8.42871605115606
C            5.78482101792824        9.08360542700767        9.16888625177313
H            5.21671477206549        9.46935177284369        8.32977690039888
C            5.13240624878660        8.40435167071762       10.18627977324194
H            4.05670771361092        8.27421080120896       10.14280938830332
