286
 energy: -424.498679219560 gnorm: 0.000048251460 xtb: 6.5.1 (579679a)
Au           1.34814195469151        2.41893821804052        7.62154258478148
Au           1.31646876705888        5.08566621255803        7.42457015356905
Au           3.80449197949788        3.48866223540488        7.39553139408133
Au           0.29023308654920        3.65076389498584        9.77006074978044
Au           0.07467591931288        3.20015137686076        5.38543729832470
Au           2.66696171222590        1.71120234106310        5.34105761614258
Au           2.86157485737812        2.13783000531059        9.86696069476205
Au          -1.41134609575290        2.33088107091033        7.78830590384862
Au           0.15438668672098        0.32981448223692        6.30708664148760
Au           2.83790796412417        0.09355648487327        7.79157724783456
Au           0.42068769068739        0.50314787055580        9.38760600210960
P            1.27607647620067        7.36892931872575        6.70968545562346
P            6.13334419844971        3.97640182558810        7.57142951582035
P           -1.07166390600421        4.38621066000861       11.59862559397842
P           -0.67206395958597        4.46517299391292        3.51393836932279
P            3.98053825361118        0.98647058021595        3.45980728971386
P            4.22017747032058        2.54476640217277       11.80295287530921
P           -3.75756808525926        2.56162609662911        8.25327260412100
P           -1.14208798104748       -1.52408112803108        5.50612755757970
P            4.45565999771008       -1.61359288350664        7.37779762954222
P           -0.65320054049791       -1.48140541356203       10.20719091725062
C           -0.23680333964586        7.91638973269257        5.77023996455941
C           -0.95609031008547        6.73608085127865        5.10502363457414
C           -0.26279769811638        6.24705710986028        3.82705547054542
C           -2.84418085842903        4.04224223129417       11.16443753371701
C           -3.08570543974944        2.53779501729337       10.98955271374031
C           -4.23003037041760        2.21850378600484       10.02051908454535
C            5.64693152187915        0.27248044930137        3.88741029628606
C            5.71987931990919       -0.17968788551825        5.34969383682651
C            4.98880388042898       -1.50365365346225        5.60428683583149
C           -2.43210978438817       -1.50242910056369        8.02780577103212
C           -1.37550935328250       -2.35488405070086        8.73721324726698
C            2.67747390508604        7.70397882114023        5.59332776783598
C            3.13809186614652        8.99796268181010        5.33396357457182
C            4.23856295742920        9.20128830154208        4.51601825395400
C            4.89853568884638        8.11954158996448        3.94808334993347
C            4.45013108887033        6.82990165398785        4.19726157572043
C            3.34860808399149        6.62471733639201        5.01259510084171
C            1.48945252221983        8.60038125844603        8.02774320959000
C            2.21243826696828        8.19702470461866        9.15538943677728
C            2.44744155301393        9.07688029784282       10.19905421825795
C            1.94876867292264       10.37172783780966       10.13944250815532
C            1.21919711177831       10.78079598128743        9.03175032124521
C            0.99222230001849        9.90556917640390        7.97936956136534
C            7.23465807262194        3.24244020965907        6.32776410515334
C            7.17747285724821        3.76205431943317        5.02914332290267
C            7.93264788095074        3.20610683002903        4.00998542805713
C            8.75362824154232        2.11439436863110        4.26956288617104
C            8.80712515064902        1.58065323014794        5.55020931826405
C            8.04817434195658        2.13341259247943        6.57242186636219
C           -1.08219029975814        6.17693451051713       11.90448128417183
C           -1.01272782204837        6.76978027090000       13.16597671212930
C           -0.98501493474961        8.15159688612954       13.28835203895263
C           -1.02358658520370        8.95626977967568       12.15833475177591
C           -1.08552613830786        8.37660518409490       10.89732795912900
C           -1.10666718616936        6.99808408290347       10.77101255530638
C           -0.85336983428593        3.52507393070913       13.18133442317738
C            0.23153441499113        2.65331383176759       13.30566330675567
C            0.43580736832793        1.93245499796701       14.47169194501396
C           -0.44722836693361        2.07175201703531       15.53375176408453
C           -1.53545322594931        2.92821709740420       15.42098111896953
C           -1.74242686521878        3.64836323550878       14.25432072238207
C           -2.46620591522941        4.44334799078264        3.22651056543108
C           -3.03875955893469        4.54163690338408        1.95577029561871
C           -4.41603998478173        4.48632110032102        1.80353310176887
C           -5.23816055893852        4.33260692717356        2.91160199631988
C           -4.67959687977392        4.23036037797583        4.17879865279525
C           -3.30392815775758        4.27780795266999        4.33379498610843
C            0.08098071240769        4.04547859654295        1.91629551172988
C            0.37878403934301        4.97113418491054        0.91257350444858
C            0.96215826462631        4.55284788841645       -0.27468926938045
C            1.25233786250273        3.21106131453230       -0.48017040683078
C            0.96013369152214        2.28171690432016        0.50916082245184
C            0.38465294400345        2.69723253610766        1.69843942090692
C            3.18521494610479       -0.26057306420880        2.39583929609134
C            3.86070261330210       -0.94268867042936        1.37952171082956
C            3.19557800825104       -1.86981331365991        0.59296834412316
C            1.84752147384918       -2.12834460385371        0.80269716607445
C            1.16337145344055       -1.45292074648569        1.80340058014179
C            1.82782257997275       -0.52733874699843        2.59337423447251
C            4.37553307569701        2.35236681930695        2.32372604844943
C            3.62755124752745        3.52667175328756        2.43729427360406
C            3.86437138993747        4.60437335153275        1.59864784588600
C            4.86287957134296        4.52677283607363        0.63735161037915
C            5.61906714482477        3.36809935645456        0.51895178886832
C            5.37804432137017        2.28628001036718        1.35170413434011
C            4.33467144147648        1.15071199755745       12.95732398933649
C            3.33389027368948        0.17648660596997       12.88002443446269
C            3.34247046831043       -0.91898735857356       13.72771987457753
C            4.36057501104725       -1.06353310058694       14.66116078341317
C            5.36403997407927       -0.10803117070641       14.74364578764489
C            5.35412574150375        0.99375557473319       13.90117184200446
C           -4.88674298910225        1.54639375243333        7.25562995722219
C           -4.47373654621925        1.24055173502034        5.95459734195290
C           -5.27662467795279        0.48754053066439        5.11286849263158
C           -6.50377992728432        0.01865401483523        5.56415808888212
C           -6.92088157203173        0.30760637586978        6.85596297380111
C           -6.12217862253999        1.06712120602147        7.69846222626673
C           -4.32730612539842        4.26560943705105        7.94963269667870
C           -5.68131096491030        4.59570973231163        7.84356647166463
C           -6.06749263634274        5.90730414593117        7.61382370957285
C           -5.11202512928664        6.90717022564429        7.48932432502738
C           -3.76402650425221        6.59096049465136        7.58847158642032
C           -3.37461104352105        5.27927481801081        7.80937435906080
C           -1.90288041048830       -1.15239977139535        3.89309779187277
C           -2.01960114658141        0.18799603642985        3.51484227910013
C           -2.60672276058057        0.53846921244739        2.30942740352511
C           -3.07836364378039       -0.45089237437248        1.45701269038896
C           -2.95969676748376       -1.78713906705726        1.81597427725488
C           -2.37715624982170       -2.13911160354660        3.02420654499909
C            5.97964597802401       -1.41175999652970        8.34589846665030
C            7.24732209648528       -1.81300096136946        7.91525066980055
C            8.36196576635082       -1.58453533450928        8.70853316595808
C            8.22993194737273       -0.96119506523970        9.94187081738397
C            6.97463525950965       -0.56555687190700       10.38492126881634
C            5.86108365328675       -0.78487311204615        9.59067910178713
C            3.92920881298425       -3.33718438107148        7.61614234097357
C            4.81920740138609       -4.41390105534991        7.65455381037957
C            4.34861166307082       -5.70053531331587        7.86400947798927
C            2.99024494470933       -5.93038224441915        8.04190354931639
C            2.09788745438594       -4.86773326302361        8.00918930804425
C            2.56564838120930       -3.58042486391015        7.79919432147671
C           -1.98157336455185       -1.33248266805339       11.43554323667398
C           -3.15372470244450       -2.09219695650018       11.44145999031664
C           -4.11362561967083       -1.88879585067523       12.42214078386363
C           -3.91684977558518       -0.93358237571079       13.40959331856750
C           -2.75317598800067       -0.17482464202346       13.41650314858305
C           -1.79581883707030       -0.36917760897294       12.43392539847336
C            0.48798225655855       -2.72833098454077       10.88120109915608
C            1.86241686525755       -2.49721131931977       10.79477332733393
C            2.76991731406172       -3.43006266270324       11.27213971445983
C            2.31246541559988       -4.60836529634359       11.84581384402232
C            0.94744839577183       -4.84664266378309       11.94394587158600
C            0.03862500056890       -3.91463891523589       11.46853689047115
H           -3.30989312878644        2.09369603356500       11.96403075996717
H           -2.17319267049440        2.05477816299125       10.62147692679186
H            2.63770818544945        9.84932564834677        5.78144599997712
H            4.58619541536407       10.20992858260443        4.32599915317615
H            5.76342979205082        8.28095596084341        3.31570936367115
H            0.00629705330589        8.67782943151566        5.02540116942505
H           -0.92822164625934        8.36698140340232        6.48790605002389
H            5.29617510225484        0.60674589235390        5.98487253090773
H            6.77031098937594       -0.28766538783505        5.63462407619755
H           -2.13751826021010       -0.44773461516997        8.06520674911972
H           -3.38775373106954       -1.58788701110802        8.55324634822705
H            3.01882790308451        8.75182468206311       11.06089159751036
H            0.82713454358198       11.78982049784680        8.98198151612121
H           -1.78601421973773       -3.33491659825527        8.99213571930594
H            9.35205669732845        1.68375012654087        3.47570594719000
H            2.12753896135664       11.06028774420883       10.95664129828437
H            9.44734537844009        0.73128530408656        5.75885670934420
H            8.10053229263928        1.69907861091520        7.56396596284186
H            4.07629770066013       -1.53914506975769        5.00093558795798
H            5.61042185495035       -2.34697022987377        5.29449174087139
H            6.39810030907038        1.05317294141825        3.73836853777975
H            5.91157007251782       -0.56101970972898        3.23299916486629
H            6.53818233017990        4.61453834349212        4.82336178819369
H           -0.97436984588203        6.15136428814557       14.05511862524554
H           -1.00042038229062       10.03492071712791       12.25816863606181
H           -1.10904283562575        8.99979927348447       10.01035380868806
H           -1.13796735076830        6.54628381761579        9.78365769106456
H            4.96131753528744        5.97905932860792        3.76064645074960
H            0.92258640443070        2.54362519727703       12.47616343810910
H           -3.04728074906410        4.56457528926387       10.22676048170889
H           -3.53162852166027        4.44919988797765       11.91012182546986
H           -0.93244830031095        8.60038930416471       14.27332468800251
H           -4.45375281511619        1.15107744970890       10.10532087648653
H           -5.12890024899378        2.76893892478935       10.30892744300099
H            3.00769657594198        5.61376981821714        5.21104313410350
H            2.58855997885808        7.17988221857200        9.21068822150133
H            7.88328944697048        3.62588010080382        3.01182745627886
H            0.42544641857677       10.24317120099073        7.11964430962920
H           -0.53784789047701        6.89428690518099        2.99127465118905
H            0.82293061509045        6.30922627162852        3.94611300501948
H           -1.98150899657580        7.03078260758402        4.86372616167222
H           -1.01859988568379        5.91543550901826        5.82872764671535
H            1.28508285662653        1.26265725344858       14.54853058603498
H            5.97334828545367        1.38697657148513        1.24360495442163
H            6.39997641041638        3.30393588356827       -0.22965383604730
H           -2.86853252617810        4.18313874138684        5.32368756387666
H           -6.31369503178464        4.28838048872061        2.78809121585514
H           -4.84864479797359        4.56344007325849        0.81295202939837
H           -5.31516483965170        4.10576220542576        5.04846185994306
H            2.84970601051713        3.59153631570975        3.19163237667362
H            1.18451835088034        1.23207845354484        0.35803976584628
H            6.14180562011618        1.73379103370205       13.98023507481017
H            1.33054445805872       -2.85391478603383        0.18610460451014
H           -3.51286344682828        1.60248602755356        5.60247447879805
H            3.73334747321335       -2.39161924621854       -0.18987444856151
H           -0.28996660054556        1.51184504274871       16.44790413636612
H            5.05176518785171        5.36819131307863       -0.01858612248901
H           -7.87739367795857       -0.05698846929467        7.21168153951450
H            1.28964270617114       -0.00167430865304        3.37577719639097
H            4.37259329592585       -1.92207764587095       15.32198620085382
H           -7.12055399408325        6.14959221933967        7.53261007955389
H           -2.22827537577413        3.03611149263349       16.24720359433376
H           -1.64188453198457        0.96292231662614        4.17389836182804
H           -2.69044550259617        1.58433333287324        2.03532398285249
H           -3.53422338049137       -0.18076598482880        0.51195594960723
H            0.16599027272355        1.97085769019784        2.47488458953517
H           -4.94357929530185        0.27018644244652        4.10435920943134
H            6.16041487639403       -0.21855698532055       15.47020573392723
H           -5.41759434460343        7.93151672698902        7.31260566965774
H           -2.31951756920478        5.03279601051235        7.87438542169085
H           -3.32286821016010       -2.56188358474202        1.15100484404213
H           -2.28749453871050       -3.18537851357511        3.29354318512500
H            7.36747683052397       -2.30629144514103        6.95776211343172
H            9.10362685803433       -0.78585425288096       10.55817345989832
H            2.55811986627611       -1.66349722608337       13.65333977896230
H            6.86142415106341       -0.08622904167214       11.35113557447051
H            4.88211310300339       -0.46685688261944        9.93619975519991
H            3.26440494749104        5.50234955477869        1.69380206645933
H           -3.01243136271502        7.36674203469986        7.49339336955854
H            5.04687958224395       -6.52872032840001        7.89250030417951
H            2.62802528112495       -6.93764455388993        8.20986159844597
H            1.18835045295708        5.28126578491889       -1.04450680584612
H            0.15535893371143        6.02184583197867        1.05419477747325
H           -2.40470335389697        4.66149173464189        1.08471643676571
H            0.11113439439761       -1.64930301364591        1.97335334630968
H           -7.13324505087397       -0.57181296796971        4.90917551663601
H            1.03649672963271       -5.03899996220314        8.14978904316292
H            1.70744797073819        2.88991823460323       -1.40950036141058
H            5.88197423465576       -4.24318255650480        7.52588939943208
H            1.86934046718690       -2.74785980247354        7.77733332168777
H            4.91133315927333       -0.74806849371242        1.19719435761818
H           -6.43499304543326        3.82213976079274        7.93898381314796
H           -6.46511975087947        1.28572003708509        8.70289297721579
H            2.54501101140067        0.28208308720597       12.14142450133509
H            9.33932354888856       -1.89832968705010        8.36108626090529
H           -2.60220273024428        4.30380920805711       14.17514081402935
H           -3.31964883679644       -2.84849073601003       10.68331333483311
H           -5.01886650087415       -2.48458277916479       12.41576026076381
H           -0.88967686319268        0.22954786909999       12.43656740199593
H            0.58821051345750       -5.76365323115200       12.39600621413546
H           -1.02536378816027       -4.10481838623526       11.55597792625660
H           -4.66863335166533       -0.78093041804357       14.17473411081836
H            3.83342043066271       -3.23453493951052       11.19352878658347
H            3.01919448915976       -5.33950970508007       12.21988411223465
H           -2.58940798840810        0.56772467594548       14.18936327921331
H            2.22231757263204       -1.57670394031759       10.34697608046224
C           -2.63119038834336       -1.90309624464558        6.56257372195753
H           -3.46871357891695       -1.32286380057244        6.16414208017600
H           -2.91367019110003       -2.95641596131969        6.50302642851225
H           -0.53907467037366       -2.52994864915925        8.05237383572898
C           -0.24576175308402       -3.08255400440612        5.23114091957465
C           -0.81688033669270       -4.35699539254103        5.27771141877674
C            1.11218060044407       -2.96970129466107        4.91349609988770
C           -0.04953837825067       -5.48007167681344        5.00536741453052
H           -1.86403868016497       -4.48030606801814        5.52771950018967
C            1.87301423349277       -4.09114841352173        4.62799296639416
H            1.57257173810092       -1.98706036008419        4.88964402233623
C            1.29221734382385       -5.35138301216026        4.67397328978111
H           -0.50658129584131       -6.46177869227428        5.04668738307402
H            2.92182959069500       -3.98064420665978        4.37667225667711
H            1.88541711802614       -6.23148735351276        4.45644749862495
C            5.95271688749904        3.20834943346775       11.62412693935635
H            6.20551891136579        3.80010120575259       12.50748629364820
H            6.66219975336459        2.37877744962952       11.57910524227233
C            6.09004220799902        4.08241924420970       10.36471830487643
H            5.10562596752671        4.46443884719538       10.07065659971798
H            6.71255003709836        4.95255012775224       10.58785635132898
C            6.71642221000808        3.30643777068965        9.19771093216272
H            6.40091803791513        2.25930909332874        9.24166589105224
H            7.80507449393300        3.32416066280775        9.28887849082218
C            3.42681915814183        3.88140296510035       12.75328706985313
C            3.32634304967040        3.87482757144582       14.14611431309054
C            2.88888599507831        4.96083050027921       12.04519752800066
C            2.70797340576025        4.92338440817513       14.81084142623749
H            3.73024240468960        3.04435523268351       14.71372254873818
C            2.27828135647432        6.01007721420723       12.71190506689565
H            2.95111398635250        4.97705767315540       10.96189950147481
C            2.18668522019575        5.99339029918004       14.09758119570772
H            2.63504405956984        4.90351192326906       15.89185834696975
H            1.86834726525273        6.83984620721433       12.14767972939803
H            1.70741919473196        6.81360512239736       14.61871708996635
C            6.56036060574980        5.73900648525734        7.60010184853554
C            7.86938628510791        6.20678674782487        7.44924156778805
C            5.52664862121281        6.66359578461291        7.77141426816265
C            8.12974807927425        7.56766120660424        7.47406539781790
H            8.68119547167686        5.50204103238438        7.30859813765106
C            5.79068535928554        8.02322448939528        7.79850875900440
H            4.50645976090060        6.30742260926515        7.87620903755145
C            7.09406386964444        8.47691647045154        7.64839343724451
H            9.14721021534118        7.92112571263131        7.35510824078457
H            4.97637287449817        8.72701659763577        7.93053007092065
H            7.30310765054691        9.53999228261814        7.66409811808505
