878
 energy: -2195.283840987992 gnorm: 0.000762141038 xtb: 6.5.1 (579679a)
Au          15.29556676851220       16.65096942878867        9.88720103631419
Au          13.00966273607125       17.68474748070149       11.57342091242234
Au          11.09669205054988       19.56847346725034       10.29441673375777
Au          15.70831518659481       20.37619651630136        8.01654830146304
Au          14.97664160933115       15.70803152366217       12.74166287295237
Au          17.23589408346286       14.63336515068181       11.16995186470326
Au          17.60971895687343       21.26092073822566       10.09605411538652
Au          19.55843155135516       16.49043872570676       10.35654331735256
Au          15.60722521243261       17.50671244546833        7.01089553673677
Au          17.62058264278081       18.35945826134751        9.18381150463639
Au          13.35641076628334       21.49500120637263        9.62857824945300
Au          11.09346082323589       16.75568768792239        9.39279398117678
Au          15.81612438987776       23.19099329726502        8.95379997449291
Au          19.54208374290868       19.33164716315203       11.25372769613679
Au          11.54799477184384       20.44691542653245        7.44352708526699
Au          15.26514350936579       22.37294908303700       11.74150412085202
Au          15.29149789814627       13.73168220019131        9.01344794588632
Au          13.70770136259724       22.27566260419522        6.90535313050974
Au          13.41876912616998       18.57128111625912        8.65293415506440
Au          13.06669488191483       14.88700532678606       10.65715311080850
Au          11.01186544416056       22.40624642973649       11.17811489759796
Au          13.81373939687941       19.56160458685459        5.87383778912322
Au          19.81809260545466       17.24803048807103        7.51249091100552
Au          17.53889010463362       15.51001421120392        8.30239225056115
Au          10.83498385048531       12.99364796770385       11.37813497810355
Au          13.33123729842444       15.72821255804308        7.74116826803000
Au          11.54547577814024       17.63252007230209        6.59743603439005
Au          18.01682315174600       19.24324439821691        6.43633614885863
Au          17.92627066763857       22.11690555550469        7.36389569453476
Au          19.86708314190518       20.13540978376137        8.53845981531068
Au           9.25288729392841       18.65841250599523        8.25790188813005
Au          15.60301054825992       14.53463396246286        6.27284249690697
Au          17.19936643900675       23.12847439132618       13.90290581512673
Au          11.05659971127109       13.97654210856034        8.60479978771075
Au          17.59381697405847       24.01404257467393       11.24937879133078
Au          19.44421265123655       13.56524155536459        9.60007808395864
Au          13.05621636003437       23.34251018744278       13.26124948817275
Au          21.32575090629638       14.58078090458003       11.53184667109880
Au          16.26812592842841       21.28795005629877        5.03390708701562
Au          17.83276926314966       16.51878674968312        5.52010615557589
Au          13.17963590709053       12.92004055788603        7.06530938216439
Au          17.49468000766419       12.74829385620762        7.44179154028958
Au           8.86087546552657       17.71763231406285       10.92194295166116
Au           8.99752634269302       14.79087373300434       10.20147881502499
Au           9.10758861597460       21.57230308955287        8.85808363715028
Au          15.37393253654607       16.39942976858919        4.04105150655147
Au           9.63789679155482       12.33175818651020       15.47153066009167
Au          19.95364653342238       14.24728594761209        6.68440625110331
Au          13.23617088767517       24.51387874429789        8.64128564675269
Au          12.88840802334165       14.68332960599095        4.69374139030119
Au          15.05085925340284       25.51528499514259       10.93394191563572
Au          16.56913644870711       10.12921718746735        8.09874017963273
Au          22.72500813118277       16.68436845373816       10.16772949631376
Au           8.87607926428872       16.77495138419062        6.14721314650775
Au           7.47056023037630       15.48809456660901       12.64821336734016
C           15.00932607403946       22.87133512076149        5.04586582014121
C            9.77605056017492       13.72511960641685        5.94807457323118
C           10.09614368870588       22.11790214410235        7.15574941400464
C           14.66101475011190       23.93053330864988        4.54247433984558
C            8.28988384746541       12.09644519494993       12.59437641690309
C           11.67967171702437       17.47151317350877        3.73617231944387
C           21.10554921310689       13.36678049805610        8.12339952627941
C           16.85709025710177       25.90295948459704       10.12421049693046
C           17.64413136013559       19.94169987245185        4.34959405152955
C           10.26222874089677       24.59573658953159        9.50447395057130
C            8.91204630463706       12.25839377766836       13.63101628009402
C           19.33401257635611       14.84198495322045        4.85333595005747
C            7.23980238212356       11.47530646973575        9.07485831383392
H            7.67475551566549       11.19932935753799        8.12181009903691
C            8.03133117811403       11.56581101657701       10.20628316199595
H            9.08944961524833       11.34123796659613       10.14291137034460
C            7.47866964156865       11.93437341752592       11.43849589048373
C            6.10211803441891       12.17986943013055       11.51701358548491
H            5.66321757860761       12.45442904128452       12.46848831904656
C            5.30955593565234       12.08800913149664       10.38760912018166
H            4.24731198891731       12.29337892968642       10.44599514446280
C            5.87834621456348       11.74643751376196        9.16255142549052
C           15.66049815107798       25.70404046484682        6.93899509796757
C           18.19317962836098       19.54422920778026        3.33184782668874
C           13.49925617373118       12.76268909975908        4.77471478339869
C           14.73340684257090       18.29266321124428        3.88701728843091
C           22.48861835034743       16.32147889369364        7.10172673345510
C           14.83307568533481       25.14458880468380        7.63289921533346
C           16.07608215789388       14.55744120535406        3.76086503587382
C           10.07728636599075       22.92085886703746        6.23368317053024
C           11.42620687820936       24.21096581473190        9.44671971318844
C           12.10170337449219       25.78890790586179       12.10899949080028
C            9.52278540725846       14.90372364456384        6.13435480450595
C           18.79931807828466       19.12243663734324        2.12320838234111
C           18.53315852045695       19.81445649506013        0.93595009846392
H           17.86981795703850       20.66970973332457        0.95702329643343
C           19.11509214479905       19.41500650641727       -0.25352796002361
H           18.90517847083677       19.95164221725328       -1.17075605170837
C           19.97394617094651       18.32069371190941       -0.26798436668074
C           20.25311919756328       17.63268187006095        0.90853571106202
H           20.92864518894987       16.78685349488986        0.88187605741928
C           19.66662864541312       18.02507392732363        2.09835572216156
H           19.87141320197859       17.48639560331751        3.01570456058607
C           16.40182738947908       25.96944507794842       14.11950778047664
C           17.08914394489820       12.28981352597913        2.89110586241671
C           17.14871669828086       12.00349995645221        1.52228443303504
H           16.70636430673938       12.69056972419195        0.81135221832330
C           17.78888167713814       10.85998410094935        1.07855415000489
H           17.85669600583249       10.64922198877274        0.01775317796487
C           18.35896436528926        9.98371087831238        1.99834101246289
C           18.27587863185324       10.24303852200504        3.36380846523751
H           18.70499037386900        9.54461835478399        4.07196712707373
C           17.65106830930932       11.39363754588984        3.80568468226934
H           17.58797499997715       11.60831887164075        4.86573748611637
C           16.50961954913386       13.49483603017267        3.35841757303691
C           19.02361955637462       27.72309789200854        7.89349330987815
H           18.10989154866414       28.26619318817858        7.68544176859294
C           19.02619894911949       26.71773745252375        8.86489786629374
C           20.21948915734120       26.04348506886670        9.15454590841962
H           20.23177085749135       25.30435669942239        9.94601070552139
C           21.37365968399355       26.32740578337405        8.44863656999667
H           22.29469466282468       25.80441274273794        8.67480531978035
C           21.34988667624829       27.30067017313124        7.45368218338446
C           20.18081426944641       28.00861775957651        7.18940738937813
H           20.18128859209051       28.77615625499606        6.42453819860059
C           20.00004803480920       22.84595911811871        6.17635826248763
C           13.87975173627066       11.61393228830089        4.59786310300584
C           17.85045101238241       26.31974255077179        9.54520301971370
C           11.19086686030857       18.62114379516394        3.06529380759962
C           10.62801226705595       19.67992017266289        3.78452569015754
H           10.54075725719596       19.60935349681190        4.86158381431332
C           10.16852770036338       20.80897557225832        3.13565362411442
H            9.73427347104355       21.62444746432171        3.70021882587357
C           10.25685235780453       20.89294901635680        1.74891332977431
C           10.81854598355309       19.84841587448273        1.01903966388111
H           10.88610992842029       19.92387410786705       -0.05971835586816
C           11.28257115064257       18.71986685618248        1.67137844406808
H           11.72029212549006       17.90622145516531        1.10596453271489
C           18.81037088054322       26.05820455134358       13.62786606620610
H           18.96021775217777       25.15380688170578       14.20549625822635
C           19.88651420804032       26.65902033017734       12.99878446110210
H           20.87501889044911       26.22062881511458       13.06453911638040
C           19.69490074448045       27.83016124701538       12.27318334139328
C           18.42935033733187       28.40758581047270       12.19652818797866
H           18.29144393469387       29.32216281659696       11.63219359079067
C           17.35449383727975       27.80491921823771       12.82397630999617
H           16.36799149766282       28.24728506832857       12.75731905750339
C           17.52782307316302       26.61175950518556       13.53643881944055
C           22.20287635050157       12.86273232815329        8.31620051515609
C           22.57722064831409       19.66807454345410        7.72368871903251
C           13.22984626065880       25.48797789680657       11.74571095941643
C           23.48688164734195       12.28895380840818        8.48379881774084
C           24.31978286452748       12.11805863034871        7.37185832032292
H           23.96891275594547       12.42188088341477        6.39383968773809
C           25.57777689191563       11.56191609459741        7.51753956616067
H           26.22047497045943       11.43326348652088        6.65512113064710
C           26.01526015702555       11.16608870390245        8.77742921769167
C           25.19061883967788       11.32147411359921        9.88712426168515
H           25.54301773869068       11.00207177063720       10.85988423498826
C           23.93501377099475       11.88458310526143        9.74581875113233
H           23.29273044656118       12.01852686273810       10.60791466351210
C           14.41480097081071       20.30844532243619        2.21017993960436
C           15.13148552889560       20.26080946173360        1.00674483502713
H           15.70551117810559       19.37465131289116        0.76427253866901
C           15.11631169507558       21.34017610528813        0.14218335207481
H           15.68306054151204       21.31312302111114       -0.78054856607042
C           14.37823885125088       22.47589302658597        0.46664628947880
C           13.63032344334820       22.51386529803642        1.63837749281810
H           13.04452448223183       23.39357490252847        1.86913545479251
C           13.64085481058720       21.43499553109872        2.50222720430410
H           13.06387830971466       21.46229965598269        3.41858586858301
F           10.75756928963755       23.03757066042733        0.93316793875233
F            9.05440381997794       27.84465810402173        2.40257873490747
C            8.91569047605557       25.03173613823976        9.44520311161138
C            7.98826202257549       24.66740276643127       10.42522290561306
H            8.31725465803705       24.09474780283345       11.28383193999047
C            6.65806948458465       25.01657710233225       10.28747678209345
H            5.93512197512557       24.72229357531608       11.03644231970059
C            6.24009430102512       25.74607674544065        9.17991904666983
C            7.16327048088950       26.15536983690922        8.22059926604747
H            6.83140945936384       26.73739103569506        7.36942636951342
C            8.49417276799801       25.80394891208381        8.35422741124593
H            9.21859852631078       26.11486487452968        7.61119684042813
C           10.07559398318094       12.37232741461557        5.63075510173862
C           10.28270373194475       12.00166217343478        4.29622858761956
H           10.17540654775997       12.74354016288325        3.51429282940371
C           10.63634948187799       10.70335834949531        3.97754061029361
H           10.81177765223340       10.42116702601176        2.94626217068714
C           10.78563134145500        9.75384501598415        4.98602352581164
C           10.55846775695215       10.10181540700068        6.31347221786040
H           10.66499238544622        9.35649821601746        7.09245030192324
C           10.20272334018417       11.40087466367275        6.63063089329079
H           10.01148254692110       11.67045798082066        7.66253725994013
F            9.31810300778725       21.87751381037153       -0.17545769069557
C           14.73758967340100       26.86548809431355        2.28840223046725
H           15.23167811314244       27.18627610263350        1.37923821447223
C           13.87328543672488       27.73168875507092        2.95177200422818
C           13.21790042304222       27.32249948744196        4.11010180660184
H           12.53466218975159       27.99873370280249        4.60975838858864
C           13.44509083386780       26.05716090421334        4.62055831439253
H           12.94406117793087       25.73719102582627        5.52595051471762
C           14.34071880961994       25.19136684632146        3.98142974030571
C           14.96905939376551       25.60154260451465        2.79944660054698
H           15.65213850003215       24.92940072752621        2.29588160152862
C           11.17585362590033        8.34377785132032        4.63786985815386
C            9.76952840041514       22.13131793978241        1.05104731509212
C           19.41897899451880       10.34945156907327        6.66059263211331
F            9.22488325734103       26.27845657754699        0.93269099716755
C           18.32646276076515       10.40634184538994        7.19803120199999
F            8.78232843250059       22.72629928527617        1.73691372315915
C            9.77465074915102       26.77862133846336        2.04202670591983
C            8.91297687276395       24.74193551028126        5.11261867941747
H            8.12645534844565       24.67014872442509        5.85298491195809
C           10.00845564382576       23.87388335174546        5.18820063647322
C           11.01847835884037       23.95772873383663        4.22388350161545
H           11.86856569289650       23.28868441501622        4.28236408706978
C           10.92947015920356       24.89161990739100        3.20727287604673
H           11.70504941269221       24.95986104726674        2.45478224664640
C            9.84189281514801       25.75712290700442        3.14714376721534
C            8.83072462813757       25.67993725259617        4.09947893162759
H            7.98255362484940       26.35153210588994        4.04542790210579
C           18.37543283315602       27.42370591749848        4.24282136847312
C           17.21488782363324       28.11392172693713        4.58288988304340
H           17.00161119233264       29.07178925893423        4.12321012343534
C           16.33164680938273       27.56751578671156        5.49700997938396
H           15.42551514785039       28.09800694181481        5.76282445283326
C           16.59308526204385       26.31541562488502        6.06555915260043
C           17.77022880163142       25.63998802250995        5.72866830718015
H           17.97936791526419       24.67929975575132        6.18380103859745
C           18.66100375887595       26.19334650385392        4.82871273131760
H           19.57679417069620       25.67445732375921        4.57282478704121
F           20.01069177946437       22.36479409366959       -1.34361754122355
F           17.89177072839344       22.34249940956382       -0.94572571347407
F           18.92427126902797       24.22009361598742       -1.18951115964236
C           19.04237682560837       22.99615442350105       -0.67539109579182
C           21.68895728075785       19.85420511728195        5.45154951740172
H           20.71811113766090       20.11019345387867        5.85719997589581
C           22.75928458755982       19.61357986055873        6.31848384392266
C           24.01273382060978       19.29902200646013        5.77894781112135
H           24.84707441338296       19.10751161368423        6.44266061125900
C           24.18615878978009       19.23208921468157        4.40784547169787
H           25.15654624914820       18.99213109323119        3.98981884666952
C           23.11138504035939       19.47839423856251        3.55728147674170
C           21.85901514738545       19.78351272812184        4.08297144529278
H           21.02480105400361       19.97113929633827        3.41874548911640
C            7.61168781611480       19.68587167687608        5.74101647422860
C           22.57959428577872       27.55450958991954        6.62480599551347
F           22.54267317936195       26.82213589567078        5.49765743118609
F           11.79391577448703        7.73790012392816        5.66052911275904
C           20.54611116004407       22.69620707421382        1.32489335816260
H           21.36133262534983       22.44699785254225        0.65666027504972
C           20.74026232509107       22.68114447657671        2.69511991545853
H           21.71430112003005       22.43808277569121        3.10172351173560
C           19.68231677957655       22.97643940967085        3.56210641646230
C           18.43358312205562       23.32077967298410        3.02818458562682
H           17.61799232673090       23.57641571301017        3.69406872780014
C           18.24087584924137       23.33818137085060        1.66017484107568
H           17.27389090769388       23.59350847025582        1.24408752721147
C           19.29468648839329       23.01556603208820        0.80682125642527
F           12.01117036669774        8.30933375545442        3.59081905992244
F           10.11287578899014        7.59664954382852        4.31924413874678
F           14.50952547338016       23.36755378339043       -1.71224550466075
F           20.75185519570428       16.53199365687382       -1.56975152890432
F           13.38056036080738       24.48651515322905       -0.25189153980943
F           19.86834312973043       18.20155503151499       -2.61470912755162
F           15.52903632022838       24.42492482677359       -0.13078607310933
F            4.09920900042617       25.98732862470771       10.13572351335254
F           21.82256246689142       18.39655641777293       -1.72837721961827
F            4.22279167468996       25.12753327073009        8.16598896649236
F           18.73031926322834       14.39099542751972       -2.67878034325855
C           22.43150059362339       19.67836148162324        8.93772633653914
F           12.56789712696090       29.69519540785288        2.85810087946788
F           13.79262997265712       29.24099080830704        1.13878472662294
C           29.38374124644962       13.27825663474095       12.14854069209183
F           29.88298542491189       14.36034873445687       12.78084572877957
F           29.74767773413323       13.37481758581334       10.86886780985382
F           29.98198705142931       12.20965932967486       12.67158131507825
C            8.13495571714731       18.62202242477286        6.02389845055696
C           27.38610907259034       10.56817157765754        8.95771864693616
F           22.68898946071590       28.83339150738253        6.26230351171941
C           23.28520837493961       19.38729716402023        2.06746985453356
F           20.24143453493470       28.80408003746383        3.89397552935086
C           14.43546368300905       23.68842329716295       -0.42209029884604
F           20.03458656718570       27.08155319048809        2.61119811471950
F           20.50417793700008       13.18298566058842       -2.44073572340449
F           14.70944641014755       29.90999682044002        2.97156090129237
C           19.39274037957060       14.71889121596156        3.63764814527507
C           19.31332970914937       13.46499266806141       -1.91574131845980
C           20.36850452580946       13.60404200279746        1.70566222845409
H           21.09664158130218       13.14007863280442        2.35876078167918
C           19.42709023894781       14.49214594525071        2.23960174952937
C           18.49785201576313       15.10295668629229        1.38889923256579
H           17.77904837981033       15.80388396320238        1.79531064897366
C           18.48432893744277       14.79674989015130        0.04011296160077
H           17.75812312939091       15.25876585445289       -0.61786985934492
C           19.40474543749357       13.88746625937562       -0.47441681348018
C           20.35630040676770       13.30251623518072        0.35610285006802
H           21.07870238636064       12.60787160713981       -0.05524461374016
C           14.53028831395945       19.23420648175556        3.12631497367940
C           24.06399660755194       15.10617771289908        5.70536368421379
H           24.63059368476951       14.85965122420436        6.59517771923855
C           22.92629854039210       15.91697687757399        5.81665571057030
C           22.22057265293333       16.26881706372862        4.66274689590260
H           21.35757584690059       16.91854211548138        4.74311319038108
C           22.60880409832167       15.77301501167598        3.43243363901315
H           22.05524743746948       16.03076756309600        2.53948113033804
C           23.71377566898936       14.93428570138387        3.33608592924227
C           24.45285608915885       14.61467721177759        4.47250595708608
H           25.32180744419518       13.97380360273562        4.38571832131947
C           25.70313969517900       13.89488672654504       11.56326031114861
H           25.06238419019468       14.35943558914854       10.82381980651616
C           25.14407124708188       13.38014139477780       12.73914755299462
C           25.97389321125706       12.76133625647095       13.68180302709620
H           25.54284217359831       12.35068961590048       14.58596908548959
C           27.33906960324955       12.69373468199439       13.47209099839331
H           27.98218750232689       12.22386365641331       14.20641293709833
C           27.88888455386384       13.24119233522613       12.31649008630593
C           27.06935233531942       13.82983019134248       11.35705414467767
H           27.50567810190201       14.23847942825127       10.45351548545459
C           24.07425552038991       14.32447132770330        2.00888266226228
F           27.35782948981393        9.23371699203161        8.91867892220396
C           23.76168440305996       13.52559952546415       13.01297204455794
F           27.90724778541839       10.92242737917620       10.14119224794965
C           22.58740316573374       13.70542277528732       13.30501131628538
F           20.00063831056988        8.33955373056290        2.36295107143937
F           18.73204288694503       28.78275249412602        2.35477014645818
C           20.60980508725357       17.86511700313926       -1.55539269242904
F           23.53378167797417       13.09157562524911        1.90370571520976
F           23.60364129342821       15.03675896676480        0.98415705971890
C            6.81361808914031       15.35290586653741       10.74601537220406
C           15.38544176396851       25.48336920444875       14.58713435563625
C           12.13612803934505       16.48757916139166        4.30073894056833
C            6.21566791384999       15.31738808157953        9.67980139546123
F           18.16038658366079        7.71648388084916        1.42469600343657
C           13.71878648728355       29.14711873609446        2.46504800164275
C            5.59789210520820       15.30255175143607        8.40629618948658
C            6.34192652384918       14.83584280218732        7.31492925307997
H            7.32804294922900       14.42142933502385        7.48438238366689
C            5.81891634631606       14.88884893642074        6.03637413117275
H            6.39644974149860       14.52682502050021        5.19471884791607
C            4.53832301763732       15.39699616456186        5.83727808374860
C            3.77360714124581       15.82202483323461        6.91999559204684
H            2.77160744055421       16.19891613830862        6.75247113172184
C            4.29734506490828       15.77215399929631        8.20046952612109
H            3.70816135507860       16.10851126029868        9.04478258124358
F            5.69849344466930       25.21183119106168        3.30121268197455
C           19.85535079893972       22.90865864524085        4.96776474178444
C           19.03699588195984        8.72816118172814        1.52175216383238
C            5.36221163732687       24.78115763461737        4.51952909419666
C            5.93597080896324       22.96780342279920        6.13125514457212
H            5.53436860614040       23.59789491107494        6.91552415457608
C            5.91412061700363       23.41307721596128        4.81063534931171
C            6.41570592077337       22.61097826095327        3.79007595981165
H            6.39517520460747       22.96213868652305        2.76563005494669
C            6.95591885701320       21.37267306140240        4.09041107067214
H            7.34257338677284       20.74355532197093        3.29802976215127
C            7.00846395451449       20.92718030809491        5.41589946263336
C            6.47730854493373       21.73266772698841        6.43178298570483
H            6.49063004136515       21.38119401857240        7.45658392527159
C            8.85413171669832       27.57677640127973       12.28790942921246
H            8.36807308948755       28.44427668769927       11.85760109226979
C           10.14999988825860       27.25129456464449       11.92828471293798
H           10.68455658069377       27.86110541178822       11.21016997678392
C           10.77925322363448       26.13251819117033       12.48820320951486
C           10.07718917370592       25.35064435176676       13.41065105620411
H           10.55803725939087       24.49042583068161       13.85946437611328
C            8.78215055019199       25.67105767052018       13.76715284692695
H            8.24547219764951       25.05975509275921       14.48170467528512
C            8.16927335682043       26.79032750095988       13.21079538321404
C           22.14523727342371       16.57617419763520        8.25218693013943
C           24.59953203917031       10.29028672966224        4.27925964716507
C           20.69191055397725       10.29024425639044        6.03891008391825
C           21.61818671036730        9.30407466897695        6.39605812403948
H           21.34488265650596        8.55119614438951        7.12518637702349
C           22.87855771724178        9.28911907904292        5.82455902303214
H           23.60063022854784        8.53701729459444        6.11810592654280
C           23.22301451598365       10.25447412806811        4.88331715111525
C           22.29893630615270       11.22480668517991        4.49941770629018
H           22.57637409417906       11.96525841177657        3.75903093569174
C           21.04134914956602       11.24151301277332        5.07141594524025
H           20.31860995842644       11.99064687172280        4.77077905893959
F           28.23011857605231       10.98062728155801        8.00759026412987
F           19.59036245274924        8.88960855940318        0.31702497824335
F           24.51358868815769       19.72304114523470        1.67902794565465
F           23.05737799141331       18.13429033718646        1.63223137248342
F           22.41885539550492       20.18183680402766        1.42160205602442
F           11.00193391587286       27.21169299765065        1.71965068750440
F           25.46576645243124        9.52889670719641        4.95203081342548