252
 energy: -397.222969320544 gnorm: 0.000034627950 xtb: 6.5.1 (579679a)
Au           7.75952726278553        6.64479110015412       16.91190660863914
Au           7.18408138974801        8.13695976005275       19.08881223969480
Au           9.48743231308502        8.67786934506425       16.90588371048593
Au           9.78614658659238        6.48901228954485       18.78416755201470
Au           7.19282432191987        5.16052186312465       19.10198983444707
Au           5.11776724845917        6.70341245424865       17.50586688923643
Au           6.62908864163387        9.11676421223777       16.38143813219467
Au           9.30385810698103        6.55477337231375       14.82753223862715
Au           9.18400739577056        4.37901909953036       16.82248204051021
Au           6.33446192679713        4.35796534483425       16.28136177505529
Au           6.36133907084418        6.80771589031020       14.64028852860886
I           11.62599566082207        6.45602571464632       20.69252824293977
I            5.34767446122380       11.39432728228545       15.93331520026329
I            4.93903344924067        2.13604893593097       15.89639227897413
P            6.87571378180021        9.73648718591727       20.84179579028713
P           11.06892363434658       10.46639456992350       17.01813994145050
P            6.98478142054086        3.73281549371911       21.01223608284170
P            2.73900677756192        6.61455441162602       17.75412884526391
P           10.72459660882784        6.49197362139260       12.93697066434471
P           10.34934701169325        2.29333688099806       16.73921994319158
P            5.07119398490854        7.04667537914004       12.64096837883887
C            7.72175818768446        9.30302280042895       22.39304719995148
C            7.30369490269747        9.70787768469583       23.66302140976380
H            6.43331271846185       10.34612945701015       23.76989065568008
C            7.99446162575898        9.28963371306125       24.79106480122038
H            7.65935896631532        9.60704481526491       25.77251490164039
C            9.10680440427861        8.46484916796338       24.67053280325694
H            9.63629469884100        8.13697664341435       25.55798846433528
C            9.53060154356450        8.06010109050808       23.41295494622901
H           10.39377910673689        7.41327937888038       23.28499487754270
C            8.83971801757827        8.47526593016560       22.28762110636381
H            9.17678300509567        8.14067535206871       21.31252502444535
C            5.13390355333445        9.97973844733031       21.31811585393092
C            4.62923078093529       11.17534813840293       21.83315839444324
H            5.28789113727144       12.02594051062648       21.96833085029049
C            3.28572566864500       11.28541957492063       22.15963185357096
H            2.90359309822437       12.22081225853239       22.55317493041673
C            2.43063271607327       10.20555256914723       21.98388650132898
H            1.38083476575363       10.29606199625798       22.23897520405983
C            2.92062694392720        9.01334967548885       21.46826938356052
H            2.25763367662946        8.16870126233706       21.31727948675665
C            4.25914132254337        8.90898529662316       21.12882350909799
H            4.63732604309285        7.98994004705249       20.69637183574413
C            7.43393111766324       11.42623785996159       20.46310311412734
C            6.92626958102725       12.02107189723723       19.30448840803666
H            6.19914250405552       11.49658356234481       18.69058771146907
C            7.35135738210533       13.27803057294234       18.91019854886856
H            6.94757715534268       13.71512530548741       18.00338796541316
C            8.29055237672721       13.96395117415418       19.66904400267992
H            8.62797714662874       14.94734631696653       19.36156085066213
C            8.80015220983927       13.38263179643621       20.82188147790643
H            9.53266500082384       13.91401324042197       21.41908838005485
C            8.38456823452502       12.11840032483737       21.21401490982312
H            8.80190033672498       11.66921328358708       22.10827905117049
C           12.72683470990017       10.07144724405749       16.37049660948441
C           13.86699815289264       10.82773875823127       16.65153787826709
H           13.79288668611129       11.69959718148769       17.29228398115240
C           15.09708573140834       10.46314417440729       16.12569479826562
H           15.97505347208874       11.05941430588137       16.34821874207706
C           15.20859946219853        9.33642340634726       15.32118780490298
H           16.17260990267078        9.05290649978602       14.91405534997539
C           14.08480372482250        8.56922023837246       15.04767832732847
H           14.16585993637726        7.68243992628305       14.42856067738839
C           12.85517291589850        8.93576361699611       15.57058324220202
H           11.97726700272563        8.33418779792979       15.36134747829752
C           10.52659607694844       11.91506062235201       16.06082752197258
C           11.34824371166112       12.70205556193366       15.25214785099211
H           12.41377520364853       12.50628238989649       15.20469575809113
C           10.80501101466078       13.73092863764571       14.49472327391888
H           11.45395642043863       14.33558366174074       13.87048843893774
C            9.43855351925752       13.98031699425361       14.52317645542753
H            9.02017081922155       14.77598177874374       13.91717013661752
C            8.61244917838497       13.19897840996778       15.31941546152977
H            7.53682101434039       13.35011703854973       15.33739903989705
C            9.15554106132087       12.18012390449405       16.08173793034798
H            8.49956471541446       11.56553173265115       16.68834716649160
C           11.42735611897946       11.12386859249277       18.67960821017965
C           11.65574416392761       12.47533284831726       18.94504809879869
H           11.61121808842291       13.20069196435404       18.14010944658589
C           11.93610182458436       12.89642305283337       20.23684482893253
H           12.12287205295047       13.94712797366275       20.42968174731041
C           11.97616454874458       11.98006633302827       21.28027065691921
H           12.19017454455533       12.31570658139170       22.28874253885602
C           11.73693500511207       10.63607723601166       21.02722899812161
H           11.75999075782414        9.91010735199368       21.83281323345000
C           11.46771750762441       10.21202607827450       19.73652329695881
H           11.29521657002221        9.15515671469580       19.55540902137777
C            8.42279215165235        2.67748139244742       21.37189801517109
C            9.66715325795274        3.30619630464818       21.47480729851207
H            9.74806797481120        4.38569573072229       21.37786337637921
C           10.81733021068967        2.56627091872296       21.68921376230318
H           11.77206196051631        3.07584136192462       21.76060348905907
C           10.74388456991793        1.18444339279404       21.80545515480845
H           11.64330202146670        0.60198631545013       21.97055486789139
C            9.51318596380144        0.55047811993934       21.70495281627605
H            9.44929734698817       -0.52804178946125       21.79644570186906
C            8.35971566243217        1.28788737972611       21.48033388433739
H            7.40658023267089        0.77906280964092       21.38945443215340
C            5.57155466512193        2.58930558177912       20.93681005522026
C            4.92639661873909        2.05804260154072       22.05652256005920
H            5.27855361036820        2.30371165093006       23.05253709795176
C            3.83066420980709        1.22199876884562       21.89885436679761
H            3.33526416371903        0.81728751252034       22.77466604515314
C            3.36315125515118        0.90546738484277       20.62857821165457
H            2.50198092987321        0.25669781838756       20.51488943958510
C            3.99861868784534        1.42758290292194       19.51125397498090
H            3.65486810516776        1.20292908357739       18.50586321415845
C            5.09064083240091        2.26377433267505       19.66866376068653
H            5.56867122205160        2.67250108212643       18.78498511922778
C            6.74753854275474        4.64342575714457       22.57284955464597
C            7.21410996567954        4.19936212579571       23.81147618750805
H            7.74989182278409        3.25941916870004       23.88172159468696
C            7.00768740729778        4.96120530518200       24.95203023120097
H            7.38072998265042        4.60933479099104       25.90747973126373
C            6.32792880156934        6.16941672650951       24.87476176286843
H            6.17021937738483        6.76298327863463       25.76813496390813
C            5.86189030004891        6.62216525716417       23.64785817717248
H            5.33894209351318        7.56941829906918       23.57672215777938
C            6.08192314109433        5.86838841624346       22.50731615802074
H            5.74716428960303        6.23518567996237       21.54394937325173
C            1.79546664411536        5.98529186136484       16.33061997391530
C            0.78283863055207        6.70547090446903       15.69576087870721
H            0.49220842569689        7.67981664859458       16.07226690035066
C            0.14228327144008        6.18062359551751       14.58286164049604
H           -0.64943153381409        6.74639244582074       14.10461361513425
C            0.51451938071568        4.94257857703777       14.07774642179832
H            0.01759821776084        4.54138224921327       13.20162286856810
C            1.52831014035965        4.22337557721720       14.69692270320052
H            1.83164509052910        3.25697483761800       14.30947467277732
C            2.16348666497791        4.73939365508412       15.81374996970569
H            2.96004062116512        4.16330968167064       16.27855976112700
C            1.99201571189782        8.23028905175489       18.13070469104787
C            2.68468302419050        9.36067673960521       17.69667756342740
H            3.61023848553281        9.25073624362531       17.14192811263380
C            2.21601764006916       10.63447282941029       17.96874379960260
H            2.78838453424032       11.48715642678591       17.61551878387892
C            1.04142884908838       10.79790325449532       18.68889096889712
H            0.67189716158892       11.79187682291737       18.91452155660502
C            0.34003453532786        9.68073594180436       19.12712762928862
H           -0.57787145198717        9.80452021152450       19.69140214869405
C            0.80870538750507        8.40410533112957       18.85279254786701
H            0.25661882226169        7.53961198251599       19.20529441499520
C            2.19582348769822        5.53502423809837       19.11762283068466
C            3.05704536006976        5.39397015984546       20.20676312102752
H            4.00939386754446        5.91133852698868       20.19542430437263
C            2.71821901529034        4.59366043671923       21.28474459255191
H            3.39881964154049        4.50078158337057       22.12378905536819
C            1.51586004730017        3.89956934599168       21.27771748113812
H            1.25287872433917        3.26073259548894       22.11321340042429
C            0.65767709211650        4.01588666726253       20.19239071946006
H           -0.27803359588923        3.46801689730189       20.18018951862494
C            0.99057544675523        4.83039372113178       19.12016776531059
H            0.31551398459387        4.91151097565815       18.27563938558453
C           11.44950578153922        8.10378982362976       12.49560166719802
C           12.71457178493875        8.26307801407408       11.92734530904884
H           13.31344896908539        7.39137966619290       11.68771379369659
C           13.21658058886597        9.53253028743814       11.67978480645214
H           14.20375555381352        9.64409347810028       11.24529480147005
C           12.46339514690528       10.65616403957693       11.99204339911388
H           12.86156652177142       11.64660646465375       11.80313307415162
C           11.20236357348055       10.50955947310553       12.55474298550189
H           10.61342720646336       11.38389566880559       12.80675509732621
C           10.70356197696606        9.24290337723486       12.81086178417463
H            9.72990426761507        9.12928889209968       13.27491849458396
C           12.16208797662054        5.38839532546174       13.12060257173448
C           12.66596919485790        5.21492786790231       14.41279305080042
H           12.20995950709744        5.75137035709513       15.23778388058783
C           13.72454255252602        4.35384677072978       14.65061990991546
H           14.10368344605041        4.22802813039028       15.65819630350980
C           14.28596137753828        3.64041588312870       13.59976111379396
H           15.10539134344258        2.95540863681252       13.78553622226850
C           13.79064237990223        3.79967135459835       12.31269505137244
H           14.22371608243177        3.24007096385903       11.49108468786861
C           12.73667404107398        4.66904031639958       12.07140927599530
H           12.35150377717154        4.78124464663623       11.06395150002336
C            9.91236618101895        5.92890323611765       11.40681951643910
C           10.25158855584179        6.37854207586808       10.12955369219632
H           11.07033951642336        7.07806998266438       10.00212568871725
C            9.53737037453877        5.94553023619692        9.02178674036199
H            9.80504288074135        6.30760608798380        8.03538006178252
C            8.48054015044046        5.05814373870198        9.17350303132347
H            7.92061869386253        4.72703037450056        8.30628827753996
C            8.13620997696299        4.60181446404189       10.43900860229023
H            7.30745595599061        3.91438044083583       10.56320096499665
C            8.84261798885143        5.04033337759074       11.54694860400264
H            8.55637385715063        4.70487463252649       12.53782521149473
C           12.02112000694912        2.41449223088884       17.44651449475090
C           13.15882527193090        1.78340003249686       16.94042495960826
H           13.07819193371909        1.11682428243360       16.08889092090913
C           14.40101041512396        2.01594484021750       17.51485064939547
H           15.27759979794489        1.51990285113894       17.11244186927765
C           14.52770208717608        2.88645853994024       18.59038594499347
H           15.50355256768349        3.07336242335205       19.02415656772090
C           13.40308135600718        3.52332970365977       19.09669340532454
H           13.47463914803303        4.23152377487584       19.91742575904786
C           12.16397281451578        3.28436116987361       18.52939222849905
H           11.29450659877274        3.79929489360138       18.92275005700002
C           10.60259924450250        1.61538998829840       15.06556909747109
C           10.45750984918195        2.48616017048978       13.98539314303475
H           10.20280230460820        3.52367797843627       14.17268173838546
C           10.63040220287361        2.04111768134676       12.68471982994001
H           10.51272958425536        2.73221393307162       11.85721559608842
C           10.94953927670164        0.71171161667152       12.44560283337526
H           11.08514405974828        0.35952871302271       11.42922554913606
C           11.08532403065003       -0.16866535235448       13.51121029921602
H           11.32593777578832       -1.20984045519556       13.32698832557695
C           10.90945470494388        0.27645355160903       14.81257268258051
H           11.00137187582355       -0.42215827009713       15.63697641625023
C            9.57358082505430        0.90249747220138       17.62522685124694
C           10.29247963257113       -0.06738909410266       18.32626244882006
H           11.37422001465201       -0.00934555228988       18.37639863557905
C            9.62836503293106       -1.10524503302786       18.96380353413893
H           10.19770358618019       -1.85932845650729       19.49600533422936
C            8.24175629243273       -1.17976640597463       18.92457118808794
H            7.72767561309559       -1.98969564488481       19.42973985734545
C            7.51830998034835       -0.21200312597493       18.24072355347145
H            6.43506304041289       -0.25492543013678       18.20596748880589
C            8.17985790967080        0.81872814465124       17.59407085889179
H            7.59831252875980        1.55995058265037       17.05374312977663
C            3.45334447092808        7.86776175111200       12.81253135533028
C            3.36401682499308        8.92717260387388       13.71795213682455
H            4.23634180686776        9.23935125442761       14.28484014931662
C            2.16884314285820        9.60239591192065       13.90172505063784
H            2.12305063702793       10.42013628338583       14.61289903698544
C            1.04398146281880        9.23153623136902       13.17744182316742
H            0.10709917736581        9.75921258928486       13.31631794604886
C            1.12053249561953        8.17721454678193       12.27607075789365
H            0.24439832644551        7.88371557049554       11.70836986041582
C            2.31389667997325        7.49250463410599       12.09840312088063
H            2.35894426840103        6.66076095019555       11.40397711134488
C            4.68908679085737        5.43717903838673       11.88363643045938
C            4.46268654792964        4.38305421541228       12.77084759722265
H            4.47703509757092        4.56841048565328       13.83910877276363
C            4.24491363486010        3.09592369371044       12.31234359541519
H            4.10492842323165        2.29921767764742       13.03766964672432
C            4.24368234298488        2.84096864592799       10.94790201465217
H            4.08101458687311        1.83418883284394       10.58005819657326
C            4.46468321187168        3.88021543506429       10.05250735423597
H            4.46947018052959        3.68511657195156        8.98558685300506
C            4.69186492302120        5.16981562719895       10.51350889366592
H            4.88205596736558        5.96730721578294        9.80372393259451
C            5.87527631861246        8.00131700905535       11.31179035755733
C            7.25639905374524        8.18197856911768       11.38997627692729
H            7.79915906392754        7.75564230314944       12.22668624623411
C            7.93621474479019        8.89860305084370       10.41842586289218
H            9.01004511387463        9.02942111719398       10.49596866393046
C            7.23973515340907        9.44965101591357        9.35179000843277
H            7.76799736239237       10.01159995221661        8.58981817201028
C            5.86291532873706        9.28740391144174        9.26792203119914
H            5.31497323680742        9.72408219661628        8.44030256517291
C            5.18257922007068        8.57221802637669       10.24174852370395
H            4.10547355650175        8.46428680245188       10.17589756938419
