323
 energy: -481.689021273891 gnorm: 0.000049514907 xtb: 6.5.1 (579679a)
C           19.23561189382599        8.32981268198485        7.12063303184167
C           19.61129929914201        8.55403073700652        8.44894537162150
H           18.85362241116554        8.82771140669240        9.17649687144174
C           20.93233183576552        8.42726480460946        8.84624728506307
H           21.20565227911457        8.60497438400796        9.87991506747752
C           21.90397007375537        8.07190011612266        7.92041813586692
H           22.93832831540520        7.97436870146393        8.22804981148841
C           21.54466882086115        7.84171488418999        6.60016517233361
H           22.29790677007413        7.56079116115500        5.87335188428558
C           20.22294772412391        7.97112012111493        6.20002427911682
H           19.96740491168401        7.79186809186997        5.16257014021002
Au          16.15564724557213       12.49949842649693        4.40228229204256
Au          17.33424952476992       12.80664940452079        6.89806304929336
Au          14.74573289704458       12.25110449471095        6.77012738910189
Au          16.45422149497597       10.20900361413047        8.11777504068904
Au          15.45321582438165       14.83416093574154        8.09574566422614
Au          15.91870024655701       12.51878578290337        9.36952620047577
C           15.15566616307229       14.99533400569784        1.90426311026895
C           14.24683327421296       13.98788374963781        1.57029058751793
H           14.31135734273012       13.02645902204826        2.06949220754947
C           13.27001720363272       14.20285250392459        0.61063603642498
H           12.57600114990803       13.40788267674306        0.36174681588529
C           13.18896311958534       15.43195915037182       -0.02937777451238
H           12.42804275429201       15.60332581316658       -0.78153659802115
C           14.08529016582138       16.44275227810861        0.29444164182234
H           14.02356510134616       17.40266094279121       -0.20486008629851
C           15.06159060334906       16.23115301965554        1.25513949866704
H           15.75426849067794       17.02761923307693        1.50374672234652
C           18.01630462121119       14.98397718259188        2.53620569999214
C           18.27284517099839       15.18714351498683        1.17912725046607
H           17.45262779915656       15.21957423379986        0.47127591887384
C           19.57567648814664       15.34898150043507        0.73064226191777
H           19.76178845337041       15.51152707996769       -0.32455147611410
C           20.63635711442442       15.30114721932989        1.62420694174704
H           21.65221502851816       15.42790604380820        1.26925129113039
C           20.39387755974982       15.08151911723652        2.97460655415657
H           21.21737217944628       15.03383974935163        3.67867226627477
C           19.09562225204679       14.91543133810897        3.42507996568086
H           18.91036213745049       14.72758799040702        4.47836753421524
C           14.23821076537806       10.20182443027511        2.43608156790962
C           13.12659043937935       10.18964349069066        3.28597007596326
H           13.27496490243169       10.18632258848837        4.36073514417102
C           11.84142111525109       10.18479262013001        2.77104698181403
H           10.99275870570250       10.16862481429904        3.44610568198247
C           11.64429198313717       10.20927110477914        1.39610246730360
H           10.63905267262122       10.21012741489214        0.99178080149766
C           12.73854490687830       10.23848078226212        0.54269907920809
H           12.58966932806325       10.26163935518445       -0.53051863925779
C           14.02760670004520       10.24036213491997        1.05552562429897
H           14.87454513370621       10.27040265803776        0.37970548995045
C           17.08843471356774        9.96603273393147        1.89394450007546
C           17.04831628050762        8.76331031400960        1.18011480149460
H           16.26144840338239        8.04358912568074        1.37754226953275
C           18.00893314249859        8.48959041919013        0.21984459105713
H           17.96746979683738        7.55664135147358       -0.33004407369656
C           19.02034174066615        9.40593775537645       -0.03995993588623
H           19.76800157637784        9.18772573252389       -0.79329328669861
C           19.07160925705497       10.60098497022251        0.66417405791835
H           19.85838043031763       11.31948976130391        0.46478303364118
C           18.11166877438288       10.87886117365803        1.62471303946530
H           18.14920895040245       11.81443528710687        2.17428525901852
C           20.87178269869313       12.30805782371318        6.73667894710908
C           20.54268416740880       11.67388417427537        5.53467477970447
H           19.54694733411105       11.80240212105531        5.12163724871741
C           21.47008821196082       10.89147797157479        4.86687406096792
H           21.19892489628121       10.41260693785865        3.93290595121760
C           22.74170706209325       10.72110826853311        5.39812994025890
H           23.46974899660612       10.10943106560956        4.87875250085817
C           23.07850027083120       11.33490243061173        6.59701953604323
H           24.06945732938050       11.20184241330428        7.01515067725779
C           22.15470754530738       12.12701531835324        7.26224420470095
H           22.43670224803438       12.60946473198663        8.19116809332711
C           20.05702597387126       15.04624475562270        6.99603423544842
C           21.35433778535374       15.40852096948295        6.62470489699747
H           22.14805169228680       14.67055183890315        6.63795666958353
C           21.63495906290714       16.70853554034793        6.23023259468366
H           22.64554039268146       16.97456166250131        5.94348490964546
C           20.62704714626151       17.66274944387809        6.19543761446349
H           20.84734908275297       18.67517852514622        5.87878419455538
C           19.33365592161300       17.31442915216816        6.56079295624995
H           18.54069896203448       18.05266142309997        6.52955221214580
C           19.05195618852968       16.01718841489700        6.95751390220333
H           18.03880994253835       15.74381479936529        7.23521655268910
C           11.93654309293895       10.09306547567561        6.69794869786773
C           10.64348418693829        9.75376122931273        6.29035952353526
H            9.87979119891972       10.51979654789437        6.21914800832677
C           10.33022907986662        8.44152138874757        5.96827119698567
H            9.32403072737014        8.19338600324259        5.65164381020987
C           11.30107193319651        7.45178371464756        6.04356562396732
H           11.05612206622570        6.42906265383277        5.78304358646073
C           12.58865177122312        7.77668826642601        6.44790808779544
H           13.35241954583985        7.00972804976963        6.50279884579501
C           12.90307446551084        9.08647230619548        6.77352114696340
H           13.91171946690728        9.34037263341244        7.08401335612207
C           11.30005975127871       12.81691040420528        6.12067265699010
C           11.78217590536273       13.23853716800165        4.87687797269934
H           12.79709256636677       12.98510841457106        4.58662465076765
C           10.97960511245693       13.96137927926061        4.01010284228742
H           11.36932895029655       14.27104581408088        3.04673576579165
C            9.67920852534430       14.28165565940010        4.37841481976163
H            9.04514115585597       14.84158582548799        3.70139288279367
C            9.19345836425541       13.88423144388343        5.61709974613668
H            8.18093139862200       14.13742338002429        5.90899408371807
C            9.99424370907028       13.15555850577579        6.48443706248534
H            9.59746576563366       12.84617442410878        7.44456870582311
C           16.78283959439286        6.86489986345323        6.87708253167586
C           15.68682583614026        6.67037782690170        7.71990504120354
H           15.27054524577974        7.51684498683196        8.25572064310304
C           15.13492487480582        5.40847336781255        7.88526313096978
H           14.28874354274194        5.27399457269436        8.54926513206277
C           15.67396504430698        4.32373998004518        7.20787323371194
H           15.24584169399073        3.33667854375524        7.33612985328680
C           16.76656413335417        4.50431752154948        6.36902944304440
H           17.19175950436324        3.65791856139986        5.84248972698737
C           17.32085790090421        5.76346431404045        6.20476285628052
H           18.17962148358214        5.89240175295656        5.55520644172937
C           15.13342783823234       18.15651864819782        6.80031983705932
C           16.17644367717816       18.39074672996701        7.69822001910046
H           16.58054083093566       17.56380494728246        8.27252578824050
C           16.69077783176169       19.66781385526012        7.86836419927107
H           17.49615052435248       19.83383331968787        8.57461919635639
C           16.16686329335309       20.72707451991482        7.14056084909825
H           16.56594799705093       21.72576121087443        7.27247681282832
C           15.12665158768760       20.50648883459354        6.24641660702373
H           14.71334100469186       21.33323176113997        5.68065042649210
C           14.60922809502992       19.23240771057347        6.07741504225680
H           13.79010806363646       19.07030007211322        5.38525331915614
C           12.70022483529868       16.67150190519175        6.94083962394300
C           11.72810314796006       16.79631239639177        5.94696343668038
H           12.00662485115146       16.77626893011086        4.90016596483694
C           10.39134631108845       16.94626426228320        6.28654589100303
H            9.64980218752303       17.04798645487824        5.50282732084961
C           10.00293694610369       16.96633497664878        7.61802203375008
H            8.95768319746337       17.08271914054573        7.87858619019389
C           10.95978083926758       16.83799128768019        8.61645731440102
H           10.66347142991262       16.85694078241918        9.65874688255263
C           12.29540684384975       16.69061749847202        8.28014636037882
H           13.04076733593959       16.59286993789298        9.06346320072254
C           16.09799643864667       16.06983217950939        4.38838586721144
H           16.74576591291762       15.90175487007985        5.25363095785672
H           16.38658195934272       17.03099413467897        3.95782633161771
C           14.62438636094840       16.10806602371825        4.82200698596486
H           14.15683469293665       15.13151711868535        4.65611296592759
H           14.08525225648538       16.82738585100200        4.20237673238718
C           16.01118875144090        8.94324626895017        4.35559929135022
H           15.30949789036657        9.12123790519390        5.17538239236294
H           15.72750714226977        7.99572225033115        3.89289341178612
C           17.44972880071762        8.86077755753328        4.89110615121708
H           17.96508745081239        9.81512953855500        4.73550568691444
H           18.00155497076108        8.10857485484037        4.32415296871444
C           19.93226386054948       13.34690774497394        9.31402586971079
H           20.85338399500483       13.87786093747493        9.56421483465489
H           19.11268990666872       13.90209107067482        9.78275074994773
C           19.97327073253273       11.91663933611411        9.85762307969940
H           20.96891626970442       11.48884175992499        9.72105440516090
H           19.28234185898809       11.28672414304796        9.28631606926404
P           16.36450610137872       14.64596754807726        3.21562945091486
P           15.88350592799640       10.38703488221848        3.18592831605631
P           19.59008282400260       13.35420238282496        7.48295971022851
P           12.42756858274602       11.79831915937429        7.11311152031980
P           17.47174654599049        8.54148207740647        6.71869709187034
P           14.48276879873807       16.46622197825779        6.63421958957219
C           12.60174392514471        8.32985874005823       11.61856308976265
C           12.22609774782840        8.55387525551865       10.29020190724807
H           12.98380227791181        8.82738431175001        9.56261254622801
C           10.90506104196727        8.42713953224498        9.89290405063110
H           10.63176639651169        8.60466358965228        8.85919794302326
C            9.93338090973952        8.07201521328816       10.81878463435730
H            8.89902033159280        7.97450080041215       10.51115641721470
C           10.29264114710863        7.84205626095996       12.13908679694064
H            9.53937332369408        7.56130055368293       12.86593352494549
C           11.61436864844737        7.97142308652089       12.53922467033252
H           11.86987389372534        7.79234010439272       13.57671748121057
Au          15.68173755547320       12.49957798270810       14.33678873050027
Au          14.50315282317542       12.80663402287214       11.84104467787067
Au          17.09168035654464       12.25118141554527       11.96899237271518
Au          15.38324654414282       10.20903486902206       10.62137336312898
Au          16.38428575865696       14.83422531084976       10.64331769096231
C           16.68174261563455       14.99540338429271       16.83488003918796
C           17.59057419210634       13.98795216501164       17.16885019741517
H           17.52604206245980       13.02651644091905       16.66967189372576
C           18.56741755393199       14.20293115612584       18.12847273666485
H           19.26143632178342       13.40796377140831       18.37736016530985
C           18.64849591420776       15.43204420412460       18.76846904301672
H           19.40943649175023       15.60342173086146       19.52060321971323
C           17.75214406796156       16.44282590654413       18.44468859328408
H           17.81388088195945       17.40273713594011       18.94398085333937
C           16.77581752096576       16.23121868464175       17.48401464923476
H           16.08312613122014       17.02767970254607       17.23542715745457
C           13.82105297575558       14.98401380462674       16.20294346868828
C           13.56453256909505       15.18747162466058       17.55997904387348
H           14.38476541132562       15.22019139582897       18.26779884728809
C           12.26169178276614       15.34919569610946       18.00847529216189
H           12.07559529518125       15.51199419574594       19.06363206068908
C           11.20098449560383       15.30096829306398       17.11496208467869
H           10.18511957053041       15.42763432101031       17.46992870412858
C           11.44344748315312       15.08105272102332       15.76460523326625
H           10.61993207285204       15.03307715634016       15.06058420579775
C           12.74171573130768       14.91508371639874       15.31412169985311
H           12.92696314728668       14.72700883113559       14.26087081131272
C           17.59920681568887       10.20181619227583       16.30308316565803
C           18.71085307413847       10.18940610099911       15.45323201797308
H           18.56252083931706       10.18596140315378       14.37846096736746
C           19.99600514226664       10.18448551250760       15.96820488282096
H           20.84469292694781       10.16810347419914       15.29318343317032
C           20.19308593764162       10.20915654409150       17.34315274068717
H           21.19830924830936       10.20993742380537       17.74751350378712
C           19.09880497645629       10.23866700532211       18.19651308742560
H           19.24764907643283       10.26197768334113       19.26973140431310
C           17.80976245996210       10.24058214890879       17.68364068019543
H           16.96280117248737       10.27085445392107       18.35942240806017
C           14.74895691864574        9.96608453703706       16.84514511499605
C           14.78907935459382        8.76340063448808       17.55904082779722
H           15.57599765263256        8.04370316841222       17.36172655098953
C           13.82840523743512        8.48969473201720       18.51926075399858
H           13.86986858093932        7.55678437987731       19.06921436403345
C           12.81694414776772        9.40601739698114       18.77895048064106
H           12.06924526667843        9.18781972887224       19.53224834415660
C           12.76568767851854       10.60103478135273       18.07476389081352
H           11.97887938094332       11.31952260879076       18.27406872453010
C           13.72567836395020       10.87889350136973       17.11427368837860
H           13.68812835339650       11.81443295615615       16.56464386343679
C           10.96568311687160       12.30811290110067       12.00265947649449
C           11.29483831505468       11.67407635160905       13.20472183060861
H           12.29060037930121       11.80262561914834       13.61768910595381
C           10.36746028006332       10.89176511123740       13.87266569166339
H           10.63867029531602       10.41299032850587       14.80666975922139
C            9.09580827383232       10.72135931188660       13.34150117935817
H            8.36778285851098       10.10976420608521       13.86099708619178
C            8.75895725781939       11.33502026562710       12.14255889664023
H            7.76797395855552       11.20193341586472       11.72450032915813
C            9.68272739685861       12.12703372704894       11.47718660301321
H            9.40069527410725       12.60937397874186       10.54821709788865
C           11.78042428019225       15.04627394593555       11.74316636338823
C           10.48312726921854       15.40854276441397       12.11455288368033
H            9.68940680441479       14.67058036290119       12.10128047593764
C           10.20252660466478       16.70853809675555       12.50909743924084
H            9.19195184439162       16.97455203393513       12.79587791040325
C           11.21044459798878       17.66274530140562       12.54390202598373
H           10.99015975114776       18.67516003762664       12.86061114321312
C           12.50381830568471       17.31443646318826       12.17847566515298
H           13.29678070729280       18.05266299826810       12.20971096267528
C           12.78549713281602       16.01721372051902       11.78168413630855
H           13.79863195533352       15.74385679660595       11.50392795807594
C           19.90091852153260       10.09312161429940       12.04126019934600
C           21.19397450836817        9.75383261932016       12.44886206004016
H           21.95766172510976       10.51987353956946       12.52007848282533
C           21.50724290301459        8.44159240551948       12.77093287690174
H           22.51344834882747        8.19346253951196       13.08754042122406
C           20.53641392139893        7.45184324064909       12.69561379396555
H           20.78137599593680        6.42912011684774       12.95611359304173
C           19.24883267166878        7.77673685304653       12.29126895262408
H           18.48507689768188        7.00976768720092       12.23635069214721
C           18.93439832959234        9.08651998348863       11.96566727809596
H           17.92575515370002        9.34041347206804       11.65516335383324
C           20.53740648125496       12.81698692820696       12.61849369071730
C           20.05532723223109       13.23868017412503       13.86227811916400
H           19.04040382476438       12.98531020935057       14.15255896349978
C           20.85794373898661       13.96151926788196       14.72901287125863
H           20.46824283156259       14.27124869479632       15.69236901226799
C           22.15835112165962       14.28171207146172       14.36067259744106
H           22.79245773827488       14.84162510423396       15.03767051622096
C           22.64406517013401       13.88422174685300       13.12199292252663
H           23.65660603864358       14.13733618260882       12.83008234022076
C           21.84323173390606       13.15556049133603       12.25469374663406
H           22.23997556495274       12.84612041307217       11.29456586852801
C           15.05454607160508        6.86496904786048       11.86202066291651
C           16.15064604195743        6.67052700450306       11.01928914926679
H           16.56698297376679        7.51704722525705       10.48359995798573
C           16.70256040762384        5.40863863318594       10.85386812544061
H           17.54882086257902        5.27422000396019       10.18995507436598
C           16.16344413218190        4.32384270134455       11.53109951690948
H           16.59157749009404        3.33679154106760       11.40280151356830
C           15.07075241328857        4.50434131406613       12.36983931120894
H           14.64550146096666        3.65789305581745       12.89625335324892
C           14.51644586216307        5.76347376316428       12.53417070346129
H           13.65760455926569        5.89234887398742       13.18363750907204
C           16.70387055357816       18.15659468382038       11.93889052110177
C           15.66091472360400       18.39086952771283       11.04093081571946
H           15.25687981121125       17.56396737807247       10.46652265102437
C           15.14656014371674       19.66793573337786       10.87085688795886
H           14.34122986450585       19.83399431505146       10.16456303573552
C           15.67038505625604       20.72714800817536       11.59879790898140
H           15.27128281459808       21.72583533926418       11.46694364509326
C           16.71053795112658       20.50651456225378       12.49299795155438
H           17.12377326213705       21.33321976622270       13.05887356640350
C           17.22798648964439       19.23243331681353       12.66192728548964
H           18.04706045324045       19.07029911842926       13.35413773132153
C           19.13710922246022       16.67158685414043       11.79825522569470
C           20.10923377815994       16.79636316681309       12.79213536832893
H           19.83071607824916       16.77635005220534       13.83893444641738
C           21.44600251835767       16.94624666670591       12.45256080608276
H           22.18754632773699       17.04795306299101       13.23628166141563
C           21.83442300025641       16.96628858082311       11.12108777137308
H           22.87968645046006       17.08261131275284       10.86053326856453
C           20.87757671494802       16.83799006732303       10.12264776301243
H           21.17389931196313       16.85692954545528        9.08036199520690
C           19.54193971812158       16.69067251020717       10.45894962732880
H           18.79658306660627       16.59294291299809        9.67562610931931
C           15.73938617063443       16.06989310800644       14.35080433577521
H           15.09155553713575       15.90189836403321       13.48559231652525
H           15.45091841111981       17.03107733401823       14.78139179010982
C           17.21295871842213       16.10805533529436       13.91708612140548
H           17.68043277766477       15.13145442909604       14.08289310689083
H           17.75212439434095       16.82728843762375       14.53677848389442
C           15.82623720504490        8.94327822495620       14.38358057327398
H           16.52787292798386        9.12127230942204       13.56375369559744
H           16.10996421799847        7.99575716181912       14.84626544192574
C           14.38769298386113        8.86072219100844       13.84810869401430
H           13.87228976606723        9.81503601785777       14.00377999818896
H           13.83594133972248        8.10845677906662       14.41504823627614
C           11.90503890997379       13.34684914139748        9.42518550056422
H           10.98388105284774       13.87776906379671        9.17505808491503
H           12.72455412236162       13.90206455035085        8.95639953317861
C           11.86408199263360       11.91657662682464        8.88159157885094
H           10.86843226918091       11.48878373564078        9.01813470476458
H           12.55500078253229       11.28666156247873        9.45291325592712
P           15.47286748873489       14.64602493674388       15.52354968958710
P           15.95393579377981       10.38709890009935       15.55320969042124
P           12.24732501134964       13.35422164240993       11.25623621754692
P           19.40986649683741       11.79837251272821       11.62612240263489
P           14.36560861728944        8.54152052840557       12.02050907870416
P           17.35456407080887       16.46630236178683       12.10489326287792
