576
 energy: -787.955886265789 gnorm: 0.000047011464 xtb: 6.5.1 (579679a)
Au          13.61212793274839        6.58539517324297       23.04394539900950
Au          14.73155999818919        9.09182197971073       22.25650981746117
Au          12.88851923270751       11.02988898644531       23.57498918382770
Au          10.89906861357319        8.95320940670581       24.45947488922743
Au          17.57028098628881        9.34987413338838       21.63702998498507
Au          15.94903027791593        7.87695782272994       24.59103292025857
Au          13.26172309648556        9.68621131436819       26.47769468644330
Au          10.40211963304651       10.40586328599689       27.11915877682758
Au           8.07052936959416        8.65692025925563       25.30426193918394
Au           9.66660793987593        7.76437081329299       22.03276378983689
Au          12.21567547886217        9.36879322925641       20.59843213575250
Au          14.90608721122374       10.82572336387125       19.90730294699635
S           15.11923649743174        6.64037729739970       21.27784549693399
S           15.22974711761577       11.12312542164412       23.83684760616513
S           10.54282975793184       11.09443624611611       23.21017743540997
S           11.89621793100756        6.70439876370398       24.74141252185925
S           18.15197534398508        8.43505560104961       23.73157451129338
S           14.28202584071288        7.56977256957562       26.28736273048139
S           12.25961543085535       11.80418430918747       26.78037006529915
S            8.40032348128696        9.22066959390698       27.55358697951199
S            7.57345624372527        8.22134009006539       23.04001879698830
S           11.67159954073142        7.11810384173842       20.99163218326504
S           12.69962754155570       11.62406962145176       20.16836320533375
S           17.17654934650814       10.36401286055976       19.53411832591217
C           17.64382424947487        4.07963979024118       14.11500602283295
H           17.26527344330126        3.08922300015186       13.88743016534796
C           20.46407358935198       15.19997577801890       28.02687055008681
H           21.23515968612161       15.95840007894069       28.10554561313320
C           11.54699453420042       15.49679463446372       33.44971374114732
H           10.88657937361393       16.35585090970428       33.40513364875862
C           11.22668120038320       11.60961623079775       16.39160155270038
H           10.56573313537703       11.00424391047794       15.78193138332282
C           18.69216059901473        4.60246872566519       13.36730080980815
H           19.12373663503821        4.01381490390516       12.56537479287236
C           18.35985157476563       16.13809630621155       23.87503219975614
H           17.33888375943831       15.74382663231924       23.88035035331289
H           18.39789142670432       16.95186992116186       23.14373683076863
C           14.49398472303603        1.42222036507406       29.96448888762922
H           13.70978801232892        2.16175892141930       29.79688569223213
H           14.76307750788855        1.43777901952982       31.02158471879674
H           14.09457023495511        0.43696278961000       29.72198575119705
C           12.90913213620496       13.97486891282115       34.74988770670610
H           13.29389106852902       13.66185903580446       35.71424876167447
C           10.55210856937833        5.14335853418431       19.55566983993186
H           10.40083616753403        4.67885601863052       20.52104388357824
C           10.85312435629406       14.00393826227872       12.42623392174486
H           10.24624959682749       13.77622198986251       11.55683877311666
C           18.70435067245085       16.67919179773798       25.26500791544319
H           18.60868317164552       15.87340794508325       25.99917358200493
H           19.74660234165130       17.01597995562825       25.27800374366307
C            7.40832068874681        4.04880841858060       25.81803682958885
C           20.45687779759776        8.23110746998390       15.41454344830680
H           21.02124328117340        8.08227554002909       14.48926697117008
C           20.75051702413103        6.45755807577364       25.41491977404913
H           21.64625349817231        6.72418318562173       24.85301413268573
H           19.91644956442801        7.05297008558452       25.03858424377093
H           20.53401024450424        5.40522627133530       25.22886176811647
C            8.69563666294408       12.29002529150856       24.80473309187495
H            8.06000770599050       11.45055690655826       24.54737300727245
C           11.63144916455870       15.15531846221799       12.43666911471126
H           11.62380289051274       15.81501056080090       11.57608606678491
C           17.79296954617359       17.83680244773527       25.66544465108488
H           17.88768969426078       18.66366513524486       24.96025966277199
H           18.05834361212564       18.19524685268106       26.66064581086509
H           16.75080167352409       17.51506772058963       25.68180228141215
C            4.77796500350668        6.79441040964322       24.90839762280851
H            4.01121031991367        6.49222493120605       25.62950679934874
H            5.30940968492591        7.65394239517105       25.33382128834797
C            9.83269313507358        3.67785830483283       23.02998207551198
H            9.95765862825172        2.99996497817844       22.19323468789523
C           11.79569421324204       16.29339127837432       17.40426067372278
H           11.67183581019235       15.50906612912978       18.15804593154031
C           17.14900067271436       16.46930988593483       19.60640097343545
H           16.12314660042226       16.52103738382529       19.25841158721412
C            9.21439292534059        1.88486203962169       28.53205019152924
H            9.69973906783182        2.71920004279106       29.04758999033972
H            8.32571156723549        1.61077276962289       29.11085534292942
C           13.15987276241484        4.01049806285965       26.73715168691623
H           14.15539357584520        3.78812458316551       27.13648104076510
H           13.24861356720168        4.90815553186692       26.11533587376881
C            8.37393903802164       15.25554209586682       26.88317235137923
C           22.14709185487111        2.66948483915461       23.21974597706202
H           22.60875432872129        1.99778675403108       23.93517068413747
C            5.66012937298607        2.19214824142739       25.22749640086270
H            5.04190968173478        2.38143998970850       26.09808097555385
C           12.68752004516423        2.84272774271002       25.87681302883108
H           11.70223775259600        3.04896983808120       25.45745548510994
H           12.62792756777331        1.92850199960224       26.46912857477723
H           13.38425164540522        2.67806639175287       25.05396276308803
C           21.00597707987375        4.38585004175175       21.37096421079031
C           18.55469611348364        5.00056721331183       30.16148556355412
C            7.18451282619314        4.24506336094538       18.69688884225414
H            7.72064905137136        5.19927905270199       18.66679996015809
H            6.77934857299773        4.06416396579133       17.69624377802979
C            7.10606606489316       14.70148808228757       27.13887804665257
C           18.12418789494872        6.38556575867889       32.11044957722585
H           17.57984396671583        7.18345301888449       32.60289517707299
C            5.72018826810724       12.18091215341570       28.34420274692273
H            4.77155849242691       12.50148263472069       27.90308169422853
H            5.98067955179041       12.89615806665662       29.13035709184189
C           18.19746437286445        1.76049053148944       17.53290421048816
H           18.07285982843034        1.45524083486337       16.49338102101500
H           17.20939673838577        1.91745582232935       17.96842581398412
H           18.69027904196663        0.95309571162640       18.07617310269496
C           11.71172123498918        7.65234093316742       31.77929303732819
H           11.62809161853142        6.94297410795108       32.60853962616044
H           10.70018459816962        7.86134548428749       31.41668351366633
C           17.48857023836056        3.41380121757066       28.49328365648470
H           18.28059865982460        2.67076179069002       28.62989012263361
H           17.14969009385274        3.35201022998825       27.45369702794083
C           13.43444212890272       11.61758562126801       29.28135292712141
H           13.94613041595422       10.73655879640283       28.91749419865589
C            8.50548282316652        2.34018537919198       14.60748802416685
H            8.02232110703657        1.57915326884299       14.00477358305992
C           19.43075393874909       17.26248402612078       19.53416783337536
H           20.16928178464835       17.93756767070502       19.11616261990131
C           12.54872938975787        7.04206735069962       30.65140213953996
H           13.49997405524128        6.67760646923724       31.05082335740354
H           12.77472745792664        7.82443575401387       29.92012745257701
C            7.11918261368805        9.78567885654472       22.39945104754420
C           16.31610887536176        3.09408838769352       29.42562980696629
H           15.54635815069069        3.86609139759048       29.32023223608440
H           16.65648960418305        3.10663208366583       30.46612587260823
C           12.12271431593929       13.88885690262475       30.15717505332793
C           20.29276686230057        4.00113022291513       22.52058234789184
C           16.23333694507571        6.21746566082180       27.54441174214487
H           16.30388267934492        5.66729580872471       26.61392548207795
C           12.66363732590542       13.54118883754153       16.69453606582124
C            8.85027659586921        7.75108130634121       28.39470394721855
C           18.08887180604628        8.14730468788346       16.35135156235476
C           16.61408555696831        5.93624751586197       21.82730138794503
C           14.70164730350802       14.44443533667894       15.52401228078207
H           14.71961072583904       13.63702409818017       14.78438380874415
H           15.09018124812344       15.34438695064015       15.03672964861400
C            7.24630484774980        1.67366660409209       22.95843679657163
H            7.85504218328360        1.47117277837213       22.08415165866948
C           10.40587962581514        2.05029974438547       18.68697383587685
H            9.92961757829743        1.08846453646586       18.47292456549430
H           10.54046006452948        2.12222352341539       19.77150546091620
C           15.23497452120909        7.99585430253619       28.84182995933077
H           14.53856956502678        8.82159685584028       28.90290006629572
C           11.62586279915023       13.45847766836318       14.61837812049865
C            5.84467567107880       13.18542404590786       20.26195047605061
C            7.83347544538167        6.97630834295291       28.95212010716681
H            6.80094849646949        7.25451721493927       28.77669222770404
C           18.89483794796597        5.41748118369315       21.32002263976509
C           12.76389120738018       13.69672152782714       32.38355707179500
C           16.25106855115475        8.00237187599117       18.41348941649316
H           15.52391316152449        7.96301408615440       19.21388870074746
C            8.61792145269497        4.43422585489881       24.98667837619808
C           10.94647833501094        6.39449367552302       17.06878315830009
C           11.52866219563472       11.21781809428199       17.68963775315844
H           11.11524993999127       10.29928722621092       18.08881672038243
C           11.16408292760581        6.39401693588377       19.47644053971437
C            6.03057167433511        4.35149642971191       19.70053857226631
H            5.23202841305757        4.95160376341946       19.25237257814913
H            5.62301562381225        3.35492397737169       19.90077934743551
C           18.20897789194328       11.45793027522034       26.39917742370893
C            9.56112796288535        5.41286824185987       25.22788732168333
H            9.48884504597658        6.07037809289837       26.08710877332501
C           17.15699293652649       12.74264745424656       22.86203354711457
H           17.81958467110343       12.16037206278329       23.48850181091026
C           18.97967383573841        4.63109682084665       22.48284036673572
C           19.77913377865475       10.52116669288517       24.32978547006508
H           20.38295907463382       10.14402547521308       23.51475105170677
C            6.21189419268637       15.36674041838727       27.95904659523496
H            5.21919325461127       14.97470610227343       28.14643588595941
C           18.63927779311777        6.60514715548111       14.66538725525101
C           17.14283388502258        9.06764171945101       18.34517584146367
C           18.06006062671397        9.15373739864406       17.29722847492816
H           18.73610575699112        9.99729107822683       17.25059717359164
C            7.92387602452118       12.21818352875439       19.54335255004584
C           15.78974270036159       12.44088534610095       22.83169853438033
C           10.13939759630330        4.53325122179411       18.39210496115181
C            5.76362866752884        5.64471416975178       24.69267359153711
H            6.53639512767372        5.95467677322221       23.98219913763095
H            5.23254785503712        4.79331081482937       24.25601924153212
C           11.75015574518972        2.91331264023093       32.32445027354524
H           12.39296222378254        2.25915405104046       32.90297620600573
C           17.73025018252828        6.08065107823093       20.99429847605348
H           17.64822062422319        6.66286752897730       20.08458554642257
C           14.61159237569673       14.16635405045908       25.96750630163793
H           14.06234379482003       13.31106619361823       25.56179750623695
H           14.12670970641642       14.44855610286110       26.90871771180550
C           16.75788687883913       14.53267404860246       21.27622875324221
C            6.80979499787894        2.92429157017645       24.99420224961612
C           20.57297740518138       14.20805228721388       27.05847199870527
H           21.42109654659227       14.18794568374303       26.38345311889331
C            6.08537975305191        0.94767124161988       23.19498039092726
H            5.78589648059174        0.17308284336314       22.49749415398796
C           16.10390753303177       12.59816531111412       27.25574303388022
H           15.53953984924249       11.74762783402665       26.85824169072487
H           15.61718512104091       12.91387126465747       28.18428752492753
C            7.36185712912598       11.50005693431846       20.75026807309791
C            9.52373447548726        3.56193497261096       31.63918109088465
H            8.44941870062504        3.42228369285254       31.68024859566178
C            5.30298848733986        1.20145740687237       24.31547672272365
H            4.40161957083467        0.62199667349194       24.48174139487729
C            5.95046128621614       10.39794958053368       22.85521076118943
H            5.40416476940313        9.95120259456178       23.67710383446192
C           18.47641827384115       13.28044442134277       27.85880610556965
C            6.85630015913175       13.26116856222681       19.28676104036847
C           20.18862926514100        5.35322066454210       20.53627964446445
C            5.45709522502007       11.54238612669810       22.24157572992806
H            4.52543714378409       11.98006735934868       22.58102861588143
C           19.57117873601759       13.24938072477139       26.97586214010362
C           19.02263223411746        3.04311603383904       17.60888111686532
H           18.51731130646613        3.83124653973589       17.04051945161003
H           20.00141189995920        2.87838337756389       17.14577317771016
C           20.20232230959105       11.63770694966072       25.03871325367723
H           21.13997945521715       12.11857755038278       24.78501254543532
C            7.60419577974830        2.66365014309429       23.86434040903371
C            9.98640581138044       12.36748646846101       24.27437161500750
C           19.20898110433675        5.06977447854004       27.71239482639866
H           20.03067582045813        4.37818309122220       27.92386603569078
H           18.82904874664294        4.84170512206918       26.71170138483736
C           12.90752734018749       13.13316265013120       31.04799479606585
C           10.08409114605428        4.56653944259597       30.85955781156613
C           14.52153007522674       15.32940324752065       24.98429685340872
H           14.98399550840079       15.06566407622303       24.03269187456345
H           15.02495335721398       16.21061444529025       25.38364415789150
H           13.47684220463915       15.58394931453326       24.80044226495705
C           11.78871358443850       12.78006027972602       15.89781934954445
C           21.20114648795220       11.97554307302540       19.97416169395677
H           21.53620528214548       11.37341490910068       20.82452126721047
H           22.00097752495751       12.68640511896543       19.74164007521157
C           20.87554724271233        6.73375207213723       20.46799492148310
H           21.76136623326234        6.64245892707681       19.83301027561388
H           20.19347665900915        7.44730775279947       19.99326748037131
C           19.72101881521691        6.51383737726895       27.75230306163924
H           19.95532150171311        6.78143428189379       28.78785063611049
H           18.93284692386711        7.19074650434294       27.40619260094005
C           11.37433894814985        7.00156294887036       18.24360538007025
H           11.87179615385464        7.96360297060058       18.20269425525943
C            9.29817784699694       12.85461914103722       19.84142912680313
H            9.97920698900191       12.06356063823582       20.17033074955166
H            9.69611205211584       13.27222963077127       18.91092091230695
C           16.89537561319012        6.59770823630589       29.84306903090027
C           20.86014552718168        3.14034054152146       23.45121010811105
H           20.31398620034866        2.83935310127824       24.33818692616839
C           19.95232374528815        4.84511797571719       19.10025728436758
H           19.36925444803770        5.59556086860361       18.55628595187807
H           20.91971571854840        4.74569135532910       18.59770400429720
C           11.84207752534313        5.89135528935020       29.90049052363643
C            7.84409134849335       10.36232587652167       21.35862219747272
H            8.76084723036143        9.89792916866031       21.01853893950523
C            8.12948690656926        5.88187062611558       29.75598662196105
H            7.32787931087840        5.30162747409472       30.19821226061499
C           17.52868266745999       15.55077774916862       20.57702282230805
C           10.31647632411847        5.15881629256195       17.14509193674618
C            6.42059728277384        5.21709348461719       26.00593176456033
H            6.95956449488481        6.06596042152497       26.44074374966704
H            5.64596960768982        4.91719519709387       26.71913517736576
C           17.84751106786011        6.03890741022065       30.79431585937137
C           16.70649142398813        5.16344624219439       22.98632708968339
H           15.82627822789571        5.02754275995466       23.60240944438257
C           19.37758469752025       15.23409328945418       28.89336080743681
H           19.31054338014037       16.01946591143002       29.63801232527296
C           10.37231257862203        2.73476213775180       32.36554005570135
H            9.95385810490405        1.94146051909941       32.97511488629453
C           12.41172491110115       14.62550685560317       14.62959725484929
C           10.48156609071309        6.34600823318651       29.42435704962038
C           18.81318839652727        9.71821641019405       30.38727548905407
H           18.19720085172394        8.85079542709067       30.13485873832526
H           18.33455151264721       10.23509596860325       31.22602623043160
C           22.28519375594105        3.91189816096075       21.14682093484043
H           22.84445977826441        4.20343970865004       20.26455515075802
C           15.33702838205723        7.28405899571329       27.65112190828066
C            9.46418172747967        3.18828745410400       18.23267369697080
C           17.80628351222072       10.33599133297158       25.70474057180304
H           16.88743966834512        9.82658687746073       25.96323835212456
C           20.12681002712751       13.40926695850746       21.73574241467486
H           21.08447740301574       13.94008741293245       21.75089617641858
H           20.16435084386766       12.63780591642059       22.51053672223397
C           12.75023802883861        5.46070531099736       28.73343692968552
H           12.89428945534782        6.32611369482201       28.08001642138867
H           13.72919901449244        5.18211884925101       29.13645604142620
C           19.93880678345018       12.74654721546515       20.36989247501931
H           19.72903773307342       13.50942737982040       19.61440698446938
H           19.07949909602670       12.06883716892261       20.40477969409896
C           19.01312402152383       14.41245237095516       22.08448080997081
C            4.71020234770321       15.00816249507382       19.21500328283536
H            3.87605434161718       15.69992191754183       19.17397582986267
C           17.88590573033499        4.51901489716595       23.33105087948784
H           17.93278559573097        3.91869303249366       24.23261766023797
C           10.17557471152823        0.69959058929061       28.48232103644056
H            9.70879492065803       -0.15529367264018       27.99120180770242
H           10.46197224122610        0.40774923470328       29.49335581804417
H           11.07901802305786        0.96402906804532       27.93091930115421
C           12.35026857598023       11.99987393043021       18.49329923485364
C           10.84265433499687       13.14205795472815       13.51629549489649
H           10.23417847374597       12.24478800369710       13.50437653014030
C           16.05773361871828       13.74995525579698       26.24751626867964
H           16.54162124279827       13.44286716231620       25.31553142620503
H           16.61225093096439       14.60639666659437       26.64389030881446
C            9.25836359238079       13.95062085004657       20.90602815682026
H            8.88282391703126       13.53828181837163       21.84787954227088
H            8.57477031582224       14.74500938819816       20.58966933701048
C           13.10430821591500       16.06744113007361       16.63887117324412
H           13.92346196234365       16.14861754452831       17.36031376388819
H           13.23961529459964       16.86682633866363       15.90324508162764
C           12.92274932450396       13.17275777829375       17.99748937995614
H           13.55425963043267       13.76807709010677       18.64470925211173
C           19.11629552627241        5.68450339803187       32.78582915535799
H           19.34851987304925        5.94081070338893       33.81367228802851
C           19.21223052415581        3.50603739138709       19.05562134197618
H           18.23391968796876        3.61354401343879       19.53536221467092
H           19.77669635568828        2.75279284340496       19.61485093872247
C           11.95189023431820       13.48026142016089       28.85029979962084
H           11.31419621399916       14.01640540371785       28.15846717254820
C            9.46206204854930        5.57582116115832       30.00904704574291
C           10.65525329242314        5.53066833375610       24.36085604242783
C            7.85183349957932        3.54000337732526       27.20792025114680
H            8.35223430625686        4.35848975940783       27.73346372000205
H            6.96080850924183        3.26933525819822       27.78355809310778
C            9.01667195008576        3.47859000383451       13.99571248382122
H            8.92741941002962        3.59423718518572       12.92111304537307
C           11.47939791607328        4.74257963975112       30.81582354619599
C            6.78934120638055       14.20143157957472       18.27612478201703
H            7.55690662362492       14.25578591748191       17.51233178628512
C            9.74038271118924        4.29907129085854       16.11798037428356
C           10.78796638100726        4.65097972594970       23.28765041308645
H           11.66334255249796        4.72187915580415       22.65521075397523
C           13.21909063066496       14.71223845340655       15.91329117824938
C           23.27444520974988        8.62332350558262       21.03034420815639
H           23.11528205841886        8.42925011430086       19.96923860246114
H           23.94830035178465        7.86179291853316       21.42539003124548
H           23.75582873514532        9.59687793685852       21.12892417100916
C           11.89751450692594       14.80221978044079       32.30737111201130
C           13.59650102545137       12.01357508212713       30.60161579347592
H           14.23869495029432       11.44636723844517       31.26521864679410
C           10.36633495485473       14.46869730796650       25.42306366421819
H           11.02150788211029       15.29928586951325       25.65856436268270
C            9.09259680110879       14.37857954138407       25.96971696037113
C            9.63971877096292        4.47035406602026       14.74378252070677
H           10.03630128467830        5.35712338820992       14.26222623061503
C            4.76454189980035       14.05789413765368       20.22851653848607
H            3.97661311342032       13.99790604467515       20.97080497425490
C           22.85003480980841        3.04719396215466       22.08178464734206
H           23.85223817663837        2.66596697806606       21.92001378217672
C           20.97840342759153        6.72059248801740       26.90237187207548
H           21.77753537150215        6.06704242111213       27.26863536709817
H           21.31140819745651        7.75571441263694       27.03373999842893
C           15.99795562877914        7.65269683294571       29.95100917679251
H           15.88829663758158        8.20728222111132       30.87578402154061
C           18.85963053954942       15.48861176103197       21.02668152601170
C           17.06774390980670       13.91495895463918       16.22817181124087
H           17.12012052629587       13.18666247450529       15.41279290918633
H           17.42613966755570       14.87441734109498       15.84083178352646
C           21.95245044156805        8.61968822636911       21.79654564698053
H           22.14183289782006        8.94876921911144       22.82342179529343
H           21.26231753562571        9.33549745718440       21.33918794758500
C           17.96559428380088       13.45880443527105       17.37548162202999
H           17.93776693789843       14.18500239954841       18.18851467204039
H           18.99535111003751       13.36034629416352       17.03094021438292
H           17.63626702667434       12.49386186956317       17.76557871287092
C           17.07712174420618        4.80975442749072       15.15364379771767
H           16.25563049367261        4.40131868702749       15.73133108936180
C           17.24086309093500        7.03140379981598       16.46935725759373
C           16.30319927827561        6.96706761572339       17.49068514754642
H           15.62570063296515        6.12586884164515       17.58125824911836
C            9.22272548999157        3.14628095213255       16.73678049525350
C            6.59768674703906       16.57457106766281       28.53683839337427
H            5.90549268230690       17.10048697791125       29.18489400962913
C            4.11724541795490        7.20696882161063       23.59548135200270
H            3.55091816862732        6.37493755870472       23.17500454047879
H            4.87541766175618        7.50981088923467       22.87160919929233
H            3.43708765106677        8.04338125239462       23.75937766484155
C            6.15398731694217       12.08403024915727       21.16691287097674
C           21.28156758874100        7.24647738463609       21.85156502025885
H           21.96317298534762        6.53021677367243       22.32050394331783
H           20.38935962772201        7.32059716463118       22.48278991718636
C            8.74767565714033       16.46981770234774       27.44375934515418
H            9.71262982382702       16.91036127977188       27.22059412273410
C            8.73699801910204        3.57903147393011       23.87489322627291
C           19.19378392783775        5.87530241251763       13.63060395527170
H           20.00659919794746        6.27480859970702       13.03412135281770
C            8.16000492598326        3.11802424327677       19.05256177482165
H            7.68011887407373        2.14880536216230       18.88508507718956
H            8.42320988693789        3.17708698682318       20.11316863536401
C           17.62428476654192       13.80383237999280       22.11194577614873
C           10.18515149907338        7.41849159223362       28.61142596760463
H           10.97118692953466        8.02075818225314       28.17293471776967