275
 energy: -425.012431515423 gnorm: 0.000383302870 xtb: 6.5.1 (579679a)
Au           2.42509597246493        8.53215195708891       25.30853942613555
Au           0.62217397713796       10.82822228189274       25.23854740433265
Au           1.42742285399191        9.52839905182989       22.68215094574319
Au           1.54860218051684        6.58982957406655       23.16226840620913
Au           0.77192195791726        6.09952462821110       25.99216901692333
Au           0.21964287745664        8.72197638106797       27.25364209115641
Au          -2.16279893945212       10.00889049789739       25.71414292565474
Au          -1.36440356140323       10.32889940357571       22.90072442102218
Au          -0.76471076024194        7.65056856037660       21.78269039057692
Au          -1.20570071042161        5.64218244499067       23.93087230880407
Au          -2.05171491897824        7.11315334588652       26.38519822023663
Au          -3.03440167253303        8.04415676463083       23.73627785619144
Au          -0.29800886637106        8.25958768535431       24.50871856697786
C            2.06559020390448       13.21443347825891       27.38618033069837
C            2.85994065142288       12.10846026039230       27.70001549821561
H            2.67686346539614       11.16043226886675       27.20541063298901
C            3.88361800603721       12.21377021662672       28.62825239890057
H            4.49119822954816       11.34648144480090       28.85847527876714
C            4.12778888454942       13.42839467914440       29.25384113427555
H            4.92841770686328       13.51367183048162       29.97881991441151
C            3.35035580433048       14.53742443211191       28.94426960280795
H            3.54460499977465       15.48856244534116       29.42582906746589
C            2.32691699591053       14.43646060493858       28.01589448430727
H            1.73132885940543       15.30928199504848       27.77132157512432
C            0.93203096641188       14.40668263839237       25.02570955476477
C            1.85531188605010       14.19719680439580       23.99448053778350
H            2.37797333388909       13.24724287464212       23.93374208388734
C            2.11828399059882       15.19043760621026       23.06601616905277
H            2.84643755813102       15.01590593878532       22.28171188871492
C            1.45253388361068       16.40711454821687       23.14702229452134
H            1.65577455708710       17.18660480328720       22.42250254053892
C            0.52883016746250       16.62288170368501       24.15989201893020
H            0.00908771924939       17.57141142552763       24.22742978122951
C            0.26725056377345       15.63254894131507       25.09585455803746
H           -0.45224478629577       15.82265142697386       25.88332006938134
C           -3.65071794786237       11.94275867943786       28.36323924759262
C           -3.49734857071855       12.99274513160961       29.27097378067903
H           -3.04919056934153       13.92811800347681       28.95764621382340
C           -3.92538299647162       12.84915447450832       30.58291050888601
H           -3.80374672431266       13.67248887477764       31.27699037476133
C           -4.51101657339824       11.66429600360700       31.00595935119193
H           -4.84759602202863       11.56077556132552       32.03057773123608
C           -4.66745924369456       10.61243377320278       30.11202672463050
H           -5.13030557205220        9.68573062773315       30.43260563206778
C           -4.23533962827844       10.74957421462306       28.80355242715333
H           -4.36037480191330        9.92911103898141       28.10326530586049
C           -4.67522502613183       12.47124352417752       25.72630724688343
C           -5.43741520902865       13.57873133003454       26.11463234569390
H           -5.14413389270028       14.16018864337623       26.98194988743888
C           -6.57148937209643       13.92959529738667       25.40021420085559
H           -7.15472000591680       14.78888909229134       25.70965725274754
C           -6.96375158378580       13.18244598152140       24.29651901164352
H           -7.85296948533744       13.45986139555913       23.74316334149411
C           -6.22072226669548       12.07638268851747       23.90819315748175
H           -6.52498793273782       11.48392262543533       23.05336593507963
C           -5.08475237352783       11.72331751150517       24.61923435698909
H           -4.51040341595416       10.85333314332339       24.31906101785002
C            3.83319982531561       11.94283033336541       21.75295668319500
C            4.31155557861246       11.62947138501847       23.02798490011866
H            3.81086784021797       10.86740912104475       23.61557992716008
C            5.42476071142387       12.27439269864855       23.54318599765557
H            5.78503289927335       12.01604700083645       24.53197159539731
C            6.07415192472772       13.24195599535484       22.78942731548056
H            6.94558539768947       13.74658568590663       23.18923580245553
C            5.61182934033331       13.55800637761526       21.51781818370041
H            6.12255668409824       14.30745074053755       20.92469360485198
C            4.50154699614701       12.91297516723263       20.99735203858393
H            4.15532321739513       13.15466099635409       19.99833905951805
C            2.89201159671053       10.40052493730668       19.51622997575109
C            3.59752048626148        9.19231197534847       19.56286684491040
H            3.78993948717195        8.72575606012222       20.52434035847583
C            4.06328658705599        8.59894726927538       18.40153537448995
H            4.61868169922040        7.66931346616946       18.45702615341205
C            3.82152321688127        9.19954610461936       17.17239230021828
H            4.18442366715761        8.73817986929683       16.26173689846627
C            3.11706008458204       10.39371591118612       17.11376950124048
H            2.92878587918872       10.86655305245148       16.15700333496656
C            2.65372375049210       10.99461210109934       18.27537992148353
H            2.11208403659672       11.93066673827934       18.20947369829834
C           -1.89290416572001       13.67466366865924       21.66734360768521
C           -1.31136283885037       14.80133865691501       21.08247057718728
H           -0.61059029907551       14.69446194190985       20.26307166135975
C           -1.63281580350739       16.07051306168980       21.54177334913807
H           -1.17796710758881       16.93729285265067       21.07677490023591
C           -2.53393441257299       16.23388599485886       22.58448930269851
H           -2.78430299870727       17.22808466573458       22.93481949861578
C           -3.11655599671586       15.11993143798273       23.17592855070743
H           -3.82579384924040       15.23891646542119       23.98744457164318
C           -2.79413181486497       13.85140220419178       22.72373923303329
H           -3.25254404819232       12.98042337476108       23.18240314748113
C           -2.94024833957950       11.55695138962827       20.01540864548436
C           -3.25613622786908       12.37788790580807       18.92693050555187
H           -2.70207739323932       13.29561352584738       18.76223049205242
C           -4.28152680014343       12.02593063108597       18.06402175616794
H           -4.51831618364736       12.66845508990269       17.22412756261800
C           -5.00713028107105       10.85989041591590       18.27507562043417
H           -5.80947439457414       10.59187458592046       17.59810322848954
C           -4.70890998043266       10.04334556196195       19.35698811475988
H           -5.27488603681482        9.13634710252336       19.53406151420768
C           -3.68266224112035       10.39076079653669       20.22085811195030
H           -3.45696721622262        9.75466125288935       21.06992773413318
C            4.50397786833991        6.02966327678626       21.27440217520905
C            4.99741992868737        6.98948078248423       22.16155576360498
H            4.35911255506978        7.37415940786774       22.94852386697744
C            6.30290146486296        7.44266174321921       22.05743875407371
H            6.66904649296335        8.18133667961663       22.76071688812876
C            7.13085739168291        6.94376278543516       21.06208559706179
H            8.15235306873876        7.29515745443440       20.97823861003253
C            6.65287990462299        5.98484339804458       20.17681036378545
H            7.30087115306137        5.58754982556988       19.40437984005181
C            5.35040532337403        5.52399081471074       20.28055020951621
H            4.99021399460909        4.76352573984900       19.59619404225886
C            2.90551086281454        3.65900794099552       21.59043333928483
C            3.19041769235273        3.16146431077987       22.86729749586667
H            3.31387798390371        3.85609514395321       23.69257617468485
C            3.33210307817424        1.80074438208874       23.08195457158116
H            3.56436043099127        1.43353732176380       24.07542995431041
C            3.18196166565564        0.91399896163135       22.02316156792560
H            3.29341375965429       -0.15120051329811       22.18683802618609
C            2.89256622749263        1.39582648976893       20.75425995240377
H            2.77744187897351        0.70722606094414       19.92540241149159
C            2.75448079036900        2.75873006405628       20.53406112834952
H            2.53551028852055        3.11609716170134       19.53492273126708
C           -0.36517873478427        7.66097577466164       18.20794289133209
C           -1.04938855109707        8.88180398347513       18.18912292413579
H           -1.71650690773697        9.12894873885229       19.00933689273159
C           -0.89651442175454        9.76403345186101       17.13275759801124
H           -1.44328634858785       10.70043180385629       17.12922072096644
C           -0.04795001029016        9.44275806806121       16.08073620090788
H            0.07355784567392       10.12974266317556       15.25179073630409
C            0.64111054697659        8.23812547463475       16.09216059113256
H            1.30193437874696        7.98320419524657       15.27194042225208
C            0.48661656030482        7.34946889269719       17.14644037978724
H            1.02764561633632        6.41082550125405       17.13405782990068
C           -2.20525188018050        5.68500676795547       19.21922266869159
C           -3.27168684070078        5.70167977759221       20.12168422104792
H           -3.18708686569605        6.26311961209315       21.04482450687988
C           -4.44478281234733        5.01846772354348       19.84459767972212
H           -5.26066221880156        5.05204440605833       20.55714921629496
C           -4.56531430626344        4.30666965708622       18.65966964294727
H           -5.48086886298853        3.77136195991730       18.43795816499361
C           -3.51350879868705        4.28664537438893       17.75117673130871
H           -3.60930444334454        3.73762613781568       16.82175570665420
C           -2.34040641209957        4.97258350449056       18.02183371772352
H           -1.52981766594739        4.96372202918301       17.30125456544092
C            3.18825889183407        3.58807650642074       26.55121066749594
C            4.02136997314421        4.62480513901628       26.12314951482252
H            3.59729178417352        5.59436486372751       25.88917431567358
C            5.38844909745047        4.43286964666842       26.00573566438399
H            6.01443123594405        5.25460399303111       25.67794231059031
C            5.94053455468367        3.19776084303716       26.31393444681906
H            7.00911952235784        3.04257623332258       26.22455161355363
C            5.12324818426947        2.15978186772154       26.74603826382958
H            5.55421281542946        1.19701856704750       26.99459396221626
C            3.75612843787241        2.34884949060767       26.86961144120173
H            3.12723061378821        1.53809661906835       27.22106623822867
C            0.95551389840058        3.39640716614774       28.36536136663017
C            1.17581272340412        4.35111291852610       29.36493059485661
H            1.58749555646072        5.31844841527087       29.09350011122693
C            0.89078130772967        4.06866341709852       30.69029391848733
H            1.07829673090752        4.81627231574883       31.45299766133389
C            0.37117213063561        2.82763949635958       31.03666883658158
H            0.14789931771411        2.60228827947905       32.07263473752114
C            0.14226056804479        1.87571252742372       30.05308079345361
H           -0.26032839267963        0.90560353648408       30.31999975542610
C            0.43106077354062        2.15339811077865       28.72467029716473
H            0.25194690101195        1.39477040987639       27.97214801802254
C           -1.17111374710464        2.27464564535048       22.67239442545522
C           -0.54026086349694        1.03296088373327       22.76912213849114
H           -0.30417697871093        0.61073834855702       23.73860423512481
C           -0.21778773283151        0.32335193629487       21.62126110550616
H            0.26787383999168       -0.64142127237620       21.70944485367701
C           -0.51848530044165        0.83822063752000       20.36809215579180
H           -0.26820452085762        0.27636323406988       19.47616606241061
C           -1.14466376988663        2.07360853231882       20.26017397083643
H           -1.38929974000081        2.48059193766016       19.28534543560705
C           -1.46383206317302        2.78721288339148       21.40324466513270
H           -1.95927505911373        3.74977871116528       21.32064301298683
C           -3.44020344720293        2.91592836285413       24.31586401751477
C           -4.37092481906402        3.95772958293955       24.29960492663039
H           -4.03649074225295        4.97613119840559       24.13879050113358
C           -5.72206011097590        3.70076090089735       24.46928942613301
H           -6.42864401117117        4.52200113412407       24.44478950208876
C           -6.15944263891382        2.39802661311961       24.66097277493438
H           -7.21518359307917        2.19320471368425       24.79294404085842
C           -5.24361849912227        1.35264917339436       24.67441258643492
H           -5.58441949988532        0.33362071681823       24.81518605784861
C           -3.89238564692082        1.60367109698431       24.49878298232689
H           -3.18613505810342        0.78053640678322       24.49345790276298
C            1.69417900833392        7.93937589259832       30.34436446230367
C            2.75671715409482        7.63923232213965       29.48743086162766
H            2.63833165411972        7.77865345391560       28.41826103707450
C            3.96149747075786        7.17409134753237       29.98983931290599
H            4.77480508558831        6.94858855558706       29.31014142786849
C            4.11986616280876        7.00423802276947       31.35817822984287
H            5.06088832726810        6.64185123137354       31.75445257259921
C            3.07377391115143        7.30636220013545       32.22131958400650
H            3.19848994075980        7.18160992585873       33.29053033652642
C            1.86823005451115        7.77346256849717       31.72296705812622
H            1.06025576760615        8.01792357866778       32.40395460303133
C           -0.29310095684186       10.01698831195599       30.57744855355373
C           -1.11065465621840       10.05208781567197       31.70909594926112
H           -1.56161051271340        9.14291575541613       32.08855666049969
C           -1.34696610503741       11.25295515692274       32.36246512920160
H           -1.98039672545872       11.26654101071950       33.24167302535091
C           -0.77373131808459       12.42946368105944       31.90065518129342
H           -0.95833424393319       13.36298850497757       32.41863746231873
C            0.03947478503235       12.40702910598741       30.77453044614959
H            0.49567411465858       13.32086429314374       30.41055946071278
C            0.27275214261769       11.21121602354328       30.11633872205077
H            0.91128519296998       11.19227745641084       29.23827622556003
C           -3.22454487677583        4.84067016267319       28.90690301148704
C           -3.01208343651170        4.37330883140236       30.20531609809221
H           -2.81870448798128        5.06769613074053       31.01423498691015
C           -3.05466384847688        3.01250626011690       30.47275716485323
H           -2.89186769006765        2.66258925121760       31.48540953350603
C           -3.30897060443961        2.10349949080422       29.45554659793515
H           -3.34533471927286        1.04255488875635       29.67216610563112
C           -3.51988068304737        2.55720289448026       28.15953347941571
H           -3.72543621277438        1.85420486676772       27.35997728783260
C           -3.47252908761073        3.91413955647767       27.88710354866771
H           -3.64097135158817        4.26945638629097       26.87487725640925
C           -4.96755886522500        7.07091014348518       28.38428996509188
C           -5.49201969447170        7.67876975892488       27.24054454510035
H           -4.85382433437977        7.83714485868195       26.37776312130331
C           -6.82061116655435        8.07034874520905       27.19479794385921
H           -7.21221591581735        8.53711551194900       26.29866403963326
C           -7.64241095291877        7.85840669338076       28.29291111620086
H           -8.68185508980428        8.16222836068891       28.25910981295651
C           -7.13437364005772        7.24865891606403       29.43334320946184
H           -7.77675094151539        7.07506374650868       30.28863247672080
C           -5.80750886374749        6.85298334730683       29.48225847374408
H           -5.42133167343697        6.36568771836671       30.37092930849106
C           -0.78007317909096       13.43738674665494       27.21379330153414
H           -0.84627676746479       12.67363805729371       27.99457128649695
H           -0.62833586753172       14.38905453900863       27.72995830899904
C           -2.09237837671919       13.49598120639988       26.41121600792232
H           -1.88061955934574       13.59223905712387       25.34198968462499
H           -2.64984632992199       14.39289356926048       26.69379159918628
C            1.18899431993235       12.46115598072845       20.74052750621271
H            0.95434458184592       12.94616158893405       21.69294709759025
H            1.68135074508814       13.21875351197524       20.12543265259107
C           -0.10401791995084       11.99878723599345       20.04232588601991
H            0.01927130197825       10.98674868893638       19.64481756621529
H           -0.30097896762442       12.64242508652386       19.18104261110440
C            2.05129111104410        5.81128317970482       19.77930459147196
H            2.06619520926270        6.89744850634120       19.64695183114679
H            2.69083310270762        5.40026314810419       18.99406878776456
C            0.61909290224692        5.27022818528270       19.60572756133706
H            0.37766493077281        4.56719003781520       20.40875571726785
H            0.55667448160188        4.70150991483352       18.67442128164871
C            0.66841228561536        2.61797731212963       25.54534173529454
H            1.01743090727327        2.85450754153108       24.53555513391067
H            1.06983538384652        1.62935778700193       25.78235906615104
C           -0.87135437860781        2.56652906156617       25.58209656958846
H           -1.25019665354639        3.11925192002203       26.44723479594100
H           -1.19528750067389        1.53136300520934       25.71636046168542
C           -1.07672118290113        7.21187934108767       30.18449622103136
H           -0.77519139078148        6.28090245149949       29.69484516476883
H           -0.97717217514064        7.03696099706802       31.25892090024343
C           -2.54472857742039        7.54046833277338       29.85398318480491
H           -2.65034275585455        8.60186742240741       29.60977934223978
H           -3.16270385548376        7.36813865689034       30.73897147864232
Cl           4.73288412372907        8.12688953778474       25.58719044610243
Cl          -5.06024439103649        7.22252835197571       22.84872302638741
P            0.71472042874507       13.02886275212810       26.18739545832210
P           -3.16587225007943       11.99210295505026       26.61450116991817
P            2.37024477863836       11.07672502286241       21.11800804780263
P           -1.58954354254818       11.95840752780878       21.15907931883866
P            2.78934009480507        5.46516938061346       21.44997796985309
P           -0.69019599586136        6.58915883016819       19.63681174261424
P            1.40571524370090        3.89379995506226       26.67826055217384
P           -1.68367478875695        3.30056930822927       24.07981795202770
P            0.12608870463100        8.52036830306671       29.63910636491169
P           -3.21880294298586        6.58599766805557       28.40878684811144
