281
 energy: -445.666695228467 gnorm: 0.000041116163 xtb: 6.5.1 (579679a)
Au           4.06479384895535        8.83987941734713       12.62124548978883
Au           2.69293084132848        9.00907027843766        9.99743852058825
Au           5.14608192536331       10.70097831815298       10.40590875727326
Au           4.17322136082264       13.39067761407316       11.02989646589906
Au           2.64186970803574       11.14509043145065       11.80641090431340
Au           1.17084564482048        8.87346814915910       12.62167777807010
Au           2.62515782546035       13.35075241054231       13.58748358544175
Au           2.57626089423771       10.55689195067371       14.54785977721436
Au           5.01199361407756       11.62161470599189       13.19330127960202
Au           0.27770257086361       10.69791468892525       10.40632796549750
Au           1.10849383774229       13.41563627509450       11.07882880413394
Au           0.10966150184095       11.67284911379903       13.17897808811072
Au           2.67409105249680       11.77208348732138        9.03855030165700
N            7.08687359697798       10.49345804164269        7.95550250746076
N            2.63077534509852        5.96876381735592        9.17255027994036
N            5.58757330887945       15.63144029491633        9.25887167227624
C            2.97578685776964       12.67129507603261        7.21284497059601
N            2.08675927002389        7.19794522549517        7.48998546821024
N            8.08113196750107        9.76865252728577        9.72410576214047
N           -2.83375839507789       11.24637615374661       14.18139691141245
N            4.90413686262369       16.50488115726803       11.10465122119903
C            8.38227329455350       10.21190456429771        7.56912592949409
N           -1.84767430043999       10.95115532496700        8.12478936959543
C            2.59257723642666       10.31398657909573       16.71332930682455
N           -2.18734036436343        9.08937983076027        9.15432083152500
C           -3.12232282335761       12.56486462594506       15.94324260480558
C           -3.78925495001200       11.68774197119622       15.07354241249958
C           -5.14502138694026       11.41498934856204       15.21699430761396
H           -5.66530714522074       10.73966409222495       14.54985669405702
C           -5.80351835838440       12.05028618257098       16.25639985575882
H           -6.86130660440511       11.86709754970862       16.40537606074265
C           -5.13905367292960       12.92642102710902       17.12222318746604
H           -5.69834707302497       13.40026415373275       17.92056474880911
C           -3.78887634642482       13.20175332129061       16.98398893364816
H           -3.28098888671974       13.88147389335552       17.65630632532907
N            0.25045022822620       15.96775153107141        9.32215855855231
C            4.97691520888944       15.35092982304640       10.42108412325750
N            7.39362995303575       13.05566058998238       14.64354132241985
N           -0.48032906305413       16.13475164308039       11.34185178958245
C            0.25833067096108       15.36759653699568       10.52247953998753
N            2.50628569162596        9.10989876742534       17.30245495368688
N            3.10197149534966       11.15517763769471       17.62916644683610
C            2.61353703002663        7.23436312330633        8.72657352349735
C           -3.08733494665783       10.33012251967511       13.08475607831734
H           -3.85813675304643        9.62134892518804       13.39508588186071
H           -2.16405977012722        9.78002625252119       12.88634513703171
C            4.24641105391826       16.64992947888388       12.39150251771521
H            4.83550040736098       17.32948862234869       13.01442768596862
H            4.22418927116321       15.66441207550112       12.86333240377982
C            3.29060482137652       13.37801737066603        6.27740353765857
C            6.02212901856355       10.88787493144231        7.05160881092547
H            5.26216222559797       11.41445748625123        7.63367251562338
H            6.42926685698177       11.57198687708151        6.30151533519467
C            9.03329759838270        9.75262275479650        8.72522492597727
C           -0.73691926528834       13.28655339440563       16.20143983162080
H            0.07785370141322       13.44562919662780       15.49101833058560
H           -1.09783570212748       14.25986957924612       16.54647481665970
C           -3.07316650144367        9.10116195827483        8.09578320005116
C            2.11762018647890        5.10454657472123        8.22681663997488
C            1.93092162599641        3.72697514570321        8.20815225187398
H            2.20613476953999        3.10209451398792        9.04806779831279
C            1.37427013168999        3.18593806892390        7.06115361666276
H            1.20842176124684        2.11635276189819        7.00523498531145
C            1.02044864109792        3.98461602314234        5.96810388319980
H            0.58910397693381        3.51469258426333        5.09186196597240
C            1.20937645693852        5.35675570631251        5.97823786073774
H            0.93770124189053        5.96830184721843        5.12724028559444
C            1.76277813056973        5.90579789866796        7.12925367696113
C            6.90671209989615       10.21306223643192        9.25745052623140
C            9.05017503549461       10.32147758566969        6.35477040817814
H            8.55420331468536       10.67587386333346        5.46003098849327
C           -1.07992558808201        6.93601451309095        9.53499192385909
H           -1.44164335459562        6.54588051820474        8.58402078063514
H           -0.99804482039673        6.11681463338072       10.24829441440055
H           -0.09143271493662        7.36821949032113        9.38488738005771
C           -2.86166000914879       10.32056390316661        7.43248699842746
C            1.90477560893800        8.36699960880935        6.64888006273318
H            2.25081876708473        8.13056487565525        5.63789814936412
H            2.52731180360877        9.16380526506571        7.06313978768020
C           -1.44792148977366       10.20937212910728        9.17275773435536
C           -1.64149150685685       11.80080651165438       14.44355031718050
C            6.95224909138845       14.30487981039262       14.05317936014882
H            7.16347704361700       15.11887409143555       14.75208550808201
H            5.87154082799374       14.23495096759877       13.90587383020923
N            7.51230005563511       10.95131972489942       15.08447177488286
C            5.92380130351981       14.62896978790040        8.26468783002330
H            5.93454738949785       15.10150462074647        7.27858834677828
H            5.14031268658477       13.86669565927923        8.27984943602934
C           10.37393481844571        9.38488825751814        8.70500761294421
H           10.88167683925702        9.02945925257066        9.59251812714701
C            3.12980228501476        5.56867587128760       10.47758653395646
H            3.74779473228512        6.38629234207036       10.85742721284096
H            3.75592871523956        4.67955173690859       10.35421126910023
C            6.25998715485731        9.28632864979430       16.36305220839365
H            6.04902948864799        8.22019976076792       16.43431038404854
H            5.31963452639661        9.82336207997807       16.24445860526619
H            6.73780818615023        9.61547728279836       17.28548104193241
C            7.16652329813961        9.54279433372728       15.16512581481350
H            8.08935142918374        8.96444853372186       15.24739162468743
H            6.65879617699930        9.26361741752459       14.23884842802678
F           -3.90289380600528        7.48843809844491       12.45031653325415
C            7.28019577959654       14.01075583862868        8.58675846265273
H            7.55094228907518       13.29127923378686        7.81546535918883
H            7.23711122916788       13.49663288123190        9.54669059146072
H            8.04810344333750       14.78219187740648        8.63573680168532
C            8.32516745185108        9.39524738584647       11.10601456190219
H            7.37633785398605        9.07050880145582       11.54079161192807
H            9.02420276627283        8.55552522525977       11.12022249944450
C           -2.11380705340244       13.33292023434186        8.59099133636275
H           -1.73406440982126       14.32298238109467        8.34314253157593
H           -2.00352055347591       13.17359022867796        9.66337804066800
H           -3.17177440162847       13.28360853667688        8.33573985914582
C            8.89194721568250       10.57797581523254       11.88199460718142
H            9.81317082117689       10.93307161747273       11.42083106576005
H            9.10339371637919       10.26910338795479       12.90423748222038
H            8.17077188285629       11.39495441328170       11.90114503867028
C            7.65219339543407       14.53844343849182       12.71882121388358
H            7.42403325630585       13.72280556516312       12.03322586508046
H            8.73154086112229       14.58875467998157       12.85710505820430
H            7.30464149039511       15.47284386800770       12.27996085437623
C           -2.03364462787088        7.98784979825938       10.08842316860187
H           -3.01859708934531        7.55530234403761       10.27846216012623
H           -1.63964728886695        8.39133526967967       11.02382674467081
C            4.82774802251651       12.82307460800704       17.12891331466647
H            5.14044751642876       12.27838502903095       16.23909984900358
H            5.44037613049414       12.50036857452928       17.97009117919735
H            4.98642889716131       13.88775314495032       16.96109545849028
C            3.07510774677188        8.20590911898847       19.60510276962911
H            2.78019668767332        7.17640077303393       19.44666501427170
C            3.96726806416261        9.95933941098414       21.03451654450263
H            4.36015853454533       10.24314622288060       22.00395108429355
C            6.80234221087229       11.87022620438090       14.41366084710838
C           -3.53297441611698       11.09991507689563       11.84711980732311
H           -3.73936566442251       10.40196826347033       11.03725486016382
H           -2.74720930632021       11.78496996969237       11.52910178166062
H           -4.43427232191474       11.67441069885281       12.05903605726682
C            3.13879205220579        7.07834595732115       16.08497952605650
H            3.70703531868282        7.65349057421795       15.35506067109588
H            2.73323825061733        6.19495598218520       15.59330202872126
H            3.80914229380450        6.76422722025980       16.88424945064058
C            5.45992975581948       17.54200036163878       10.38133477262837
C            5.91745500792460       16.96949654761423        9.18330954907144
C            6.54199867228880       17.73499884381514        8.20540802434602
H            6.89554433653178       17.30010029404780        7.27911357798591
C            6.69211214235374       19.08613192552214        8.47011747295174
H            7.17305837933077       19.72075229158749        7.73489621969024
C            6.23847363213477       19.65625196243827        9.66479577151330
H            6.37902611605944       20.71871605757671        9.82605113046739
C            5.61540634608863       18.89841556868577       10.64250767050445
H            5.26635368009669       19.34594808400326       11.56434262556577
C            9.56724217642941       11.02203154088224       16.57255540568165
H            9.62708780022744        9.96656890288915       16.80508439620819
C           10.48861179109297       11.92425607512255       17.07716754021948
H           11.28556238631404       11.56647884300314       17.71862352897824
C           10.41914835915198       13.29014926635615       16.78065023627581
H           11.16394214958240       13.95701953966911       17.19925263552678
C            9.42548532600013       13.80877299277625       15.96703944117836
H            9.37836922548348       14.86641253191881       15.74035785634196
C            8.49797588842332       12.90721582815044       15.45774848968796
C            8.56708349022569       11.53690829359456       15.75568431504623
C            3.34729842098675       10.49692649228405       18.81711649415402
C            1.04965668799323       15.53199997538620        8.18990184533277
H            0.49037214980614       15.70845835763255        7.26804998932755
H            1.22880114376553       14.45932532040153        8.29696444518048
C           10.38556641687022        9.95435534383803        6.34078029000691
H           10.94514380787724       10.02317710787904        5.41514370486790
C           -3.72503571173334        6.37573110159126       13.19219434602117
C           -2.43787465502788        6.06617409183008       13.63226802297020
C           -2.29457148350350        4.90227452717111       14.39756751399931
H           -1.30870955125897        4.62965288018935       14.75653250678695
C           -3.39040436590630        4.10785957491455       14.69434069948323
H           -3.25757013429239        3.21084287661504       15.28820597119505
C           -4.65687739962948        4.45112401119657       14.23753208782973
H           -5.51082674091963        3.82690459232943       14.47222570245223
C           -4.82972647700518        5.60035801788559       13.47552879086877
H           -5.80410122101089        5.89311782487797       13.10530309003385
C           -1.33036830352320       12.27377158868819        7.82348756581900
H           -1.40189955181776       12.44072393058812        6.74553004889158
H           -0.27717292513428       12.29451186342577        8.11467466965257
C            1.99704797871673        7.92098020626170       16.64101890058616
H            1.40658294822404        7.34664675972028       17.36084374214127
H            1.34420402228118        8.25219603009019       15.82947659957825
C           -0.26631354255491       12.43471645228311       17.37500348966798
H            0.15336295382479       11.49630229032477       17.01271100362953
H           -1.09821885699399       12.21292838381638       18.04273002794014
H            0.49723736311976       12.97391227964144       17.93196046392569
C           -0.75721537726517       15.80923294948972       12.72953110113260
H           -0.82784469303650       16.73963854211160       13.30022383618565
H            0.08500059073900       15.22640692823654       13.11157077119279
C            4.91068843714181       14.12469404686963        4.57851799878640
H            5.62946434058791       13.40798511541353        4.96179001399742
C            3.64461918498596       14.19858027739738        5.17228482343418
C            2.75221770297485       15.13414332069355        4.64393381653460
C            3.06799631549572       15.96309637655189        3.58723985347359
H            2.33545772025334       16.67080129096205        3.22030229823978
C            4.33200646611922       15.86656981702969        3.01789415211407
H            4.59949300359038       16.50880275827354        2.18729328993921
C            5.24801434219781       14.94857582316964        3.51638531402562
H            6.23407031303454       14.87512903868767        3.07209856787229
C            3.35093278194231       12.56923836458004       17.40332336900732
H            2.75321948321480       12.88088973858662       16.54355383199696
H            3.02121931196598       13.12832435473292       18.28312137802386
C            3.85432949920290       10.91784113937526       20.04127482299583
H            4.14800297943236       11.94522890535801       20.21443589443102
C            2.96168081938242        9.16329459972153       18.60344072038701
C            5.41439318072340        9.65846559299332        6.38663959111158
H            4.59865356611509        9.96722931774035        5.73416538766879
H            5.02772806673580        8.97911977778912        7.14585727836845
H            6.16277042623100        9.13223796323768        5.79509237519323
C           -4.02760803662916        8.19138729310781        7.65545964983604
H           -4.19525354156596        7.25001584914743        8.16285982378848
C            2.37409106484445       16.28555037272130        8.17592512180569
H            2.99153872401151       15.92075405813235        7.35699002761091
H            2.90100400125762       16.12105951203020        9.11472206411409
H            2.20820709537273       17.35482784100189        8.04842776381970
C           -3.59775511901597       10.67076442431232        6.30635174734373
H           -3.44101106452314       11.60946971087269        5.79028233189635
C           11.03414624021006        9.49501411306074        7.49265145177029
H           12.08053001663732        9.21949234295638        7.43106849536322
C           -2.05052723469203       15.00926297271441       12.83514662380217
H           -2.88758453702804       15.58108205362730       12.43589603294461
H           -2.24937975020258       14.76913050969270       13.87859971950632
H           -1.96032924777948       14.08062060951773       12.27231455240941
C            0.44656568665555        8.80754449309927        6.63276041606403
H            0.33525125092118        9.67997607774881        5.98993635857713
H            0.13268275210881        9.07310914996404        7.64050955707782
H           -0.19654814088456        8.00966544486072        6.26349144015159
C           -4.75760352746229        8.54521682641611        6.53307881169693
H           -5.51222501237913        7.86563599170960        6.15448580445490
C            3.58638142572441        8.62985058625359       20.82040345912052
H            3.69454703512424        7.91604591966016       21.62878787057343
C           -1.76763845501841       18.30656411865240       11.07128627057395
H           -2.14798563253892       18.39084356806784       12.08143406847211
C           -0.97094202717034       17.23869472551951       10.67427906250869
C           -0.48246379699841       17.13739818413490        9.36160408597447
C           -0.77648624077791       18.09879155309189        8.40149861342904
H           -0.40500408594056       18.02452196789962        7.38749345789170
C           -1.57048565713104       19.16023982387075        8.80258340107784
H           -1.82447177679278       19.93345705175449        8.08686652522143
C           -2.05602808090652       19.26221557970995       10.11113862520128
H           -2.67433448911818       20.11173729696816       10.37703737300529
C            1.97846470282856        5.28870173582782       11.43558578662405
H            1.35193649293501        4.47998918253795       11.06112745284286
H            1.36388202107620        6.17975293804952       11.55614248331451
H            2.37767885457317        5.00671611957617       12.40907062700393
C           -4.54689635450387        9.76045695204609        5.87192455867615
H           -5.14370471995819        9.99294062209723        4.99761336049629
C            8.98905051892916        6.48483816356596       13.32324785943081
C            7.72702821827808        5.95881177029258       13.04475068818899
C            7.64480743463160        4.57173151804919       12.87194561315518
H            6.68029970234177        4.12735142797693       12.65415606075754
C            8.77363142709413        3.77482700552630       12.97604034049677
H            8.68809003191817        2.70301156047611       12.83875484659709
C           10.01308254090370        4.33744484089905       13.25466991248268
H           10.89289713363147        3.71023135434383       13.33509656649734
C           10.12562950680141        5.71138806376898       13.43091317697909
H           11.07787750943703        6.17833219848232       13.64857778369785
F            9.10917097105042        7.81833981669686       13.49275181563065
F            1.53346083956396       15.24452563879670        5.19785499483032
C           -0.35982507876252        7.57893030113160       13.05563578036000
C            6.58161170096818        6.79324162224007       12.93995101942044
C            5.59006276444299        7.48878598625810       12.86458658789056
C           -1.32452872312572        6.89194989575010       13.31954455230384
C            0.74706032349314       17.85075208011956       16.27922472828518
H            0.79737039370668       18.15647950249314       15.23969655074068
C            1.22299414588494       16.58366037126795       16.63592597855612
C            1.13640686405782       16.23049030533587       17.98404677712376
C            0.61326998493181       17.06462818360734       18.94996115340424
H            0.57047003180879       16.73672803175418       19.98084068318692
C            0.14998967045952       18.31770427288791       18.56678177415978
H           -0.26430923189935       18.98887993781132       19.30962339940578
C            0.21811084326084       18.70464609875777       17.23404385740501
H           -0.14533066890048       19.68199306213799       16.93783755489418
F            1.57438449352373       15.01462425017986       18.35876945146646
C            1.75471463446630       15.68098772414126       15.67687702917183
C            2.22748897721567       14.90489540110343       14.87216130271170
N           -1.81419762030246       12.60836997659034       15.50245724746908
C            2.82481782131863       17.16851250197926       12.21436986011961
H            2.26602129512926       16.49979180910939       11.56076656904057
H            2.82686589864901       18.16638759736454       11.77750626355604
H            2.33142506952361       17.20163861860760       13.18543176299353
