1381
 energy: -2192.276829769147 gnorm: 0.000716591451 xtb: 6.5.1 (579679a)
Au          -0.13619245670397       -7.89968102598052       30.34030603513837
Au          -1.05718582180011       -5.38662383698282       31.49110529484593
Au          -2.24243292598097      -14.84529195048936       30.07213571364722
Au          -2.32412022109690      -12.96464286312854       32.46878657727743
Au           1.36827871054338      -10.30743061358791       26.45437427374960
Au           2.37912073494432       -1.15127623222671       30.23588536345007
Au           6.77580585902907       -7.84210299793754       31.30943538000261
Au           1.47727298218585       -1.60234295941949       25.02959339127274
Au           4.34720065920800       -2.67479554173540       28.70755979238377
Au           5.78862462258657       -3.65693639763343       31.04809725531612
Au           8.14601440592072       -5.31343421909988       31.67226089162968
Au           1.75114725870456       -6.35564548019754       31.83463753265164
Au           2.58187443338632       -7.93596029238583       29.45190024005978
Au           0.26958020383946       -7.83105449423934       27.48162823620472
Au           0.87437904480432      -10.40888347473889       29.24497565169775
Au          -1.91315166501122       -9.46513606738518       28.74749538728400
Au          -4.75389949575607       -9.63824614121964       29.58920570213532
Au          -3.11036917242528      -12.00703040602250       29.79729687620725
Au          -3.82159320335301      -10.90980371212107       26.98282184755484
Au          -1.06774367102490      -11.96103416843090       27.46603200751842
Au          -1.45375899897507       -9.54137545460995       25.83792964630923
Au          -3.74630804628252       -7.94402759171479       27.20514458592814
Au          -3.95066416131662      -10.45020050628938       32.36455619710632
Au          -1.67008222832409       -6.17877981362806       25.90624126523203
Au          -2.35665991903040       -7.99403445044594       23.73833668089368
Au           3.02554562407047       -7.85481294724309       26.57901734538286
Au           0.46494821037711       -7.69697689362826       24.44334525400004
Au           1.12700526505364       -5.30385351791987       26.26076448278840
Au           3.44679151368878       -5.44864624922346       28.20189270786711
Au           5.42468305673593       -7.97685375320648       28.67679593923148
Au           4.53517268631534       -6.24592880650272       30.92481226326225
Au           2.82829224115568       -3.81401721396190       30.79478050446432
Au           0.89627683021168       -3.78582740136792       33.11027242234724
Au           3.75174617500946       -4.87618410983641       33.41896520875452
Au          -0.14425203296537       -2.88315110976391       30.34473771249334
Au           5.73226617672512       -2.83245071613050       34.17981144967569
Au           3.13896382706371       -1.92949265794120       32.98208349143601
Au           2.43787127658964       -1.82312154950376       36.56842671079581
Au          -0.14813985110464      -12.90675558931874       30.27330245109938
Au          -0.13907444015195        1.18588173196606       30.34779856116008
Au          -0.69767923520890       -0.91789374453275       28.31716088721747
Au          -4.34326860715429       -6.04352372480951       24.54616334141044
Au           1.58312433015616       -2.78831889518186       27.81041987665148
Au           5.36834405673169       -6.44874859424912       25.95871943878875
Au          -6.56943153556129       -9.75494629575774       27.14822579558373
Au           6.00167298928402       -6.91253643171450       34.05625216877463
Au          -5.00054879561551       -8.85727049829876       24.86187806099534
Au          -3.88478762162555      -11.75418849658906       34.97799271845643
Au           0.18124546579873      -14.58781481558695       32.79553237381511
Au          -5.02739930012767      -12.93263329290153       25.17823023491947
Au          -3.28150635318946      -13.79380977596645       27.47727045368942
Au           5.40991744321438       -9.37570042845301       25.99758655079728
Au           3.66896375270656       -3.94317150366627       25.84782680409414
Au           0.50761128258344      -10.65383973082828       23.80193647546046
Au           3.05178035651886       -6.29128922438258       24.16697757976636
Au          -0.02533266472405      -16.91070226983201       29.87849646312364
Au           3.08583690499524       -9.21919248278347       24.14897846704940
Au          -0.94034845058190      -13.11594716241788       35.03593373515667
Au           6.20947145110686       -5.09799122741824       28.59069917696365
Au          -3.06763320044375      -12.52691699284981       37.71362232738213
Au          -5.78486276455263      -12.02267642009875       30.95168565577864
Au          -1.84190104928798      -12.09432993497535       24.55288017078337
Au           6.60441476175302       -3.35611223477200       26.18732571300349
Au          -0.66841144952235       -3.72058352831356       24.77158031873120
Au           7.72964977113657       -9.87441848403893       29.17577720660819
Au          -2.93086106496566      -10.50804684558310       22.30445903358120
Au          -6.61203115925953      -13.83956880576058       28.89975123011732
Au          -4.98010461674725      -14.23016440465838       32.86334955772751
Au          -0.61434274346536       -5.71781265604166       22.42515755404241
S            4.70576880374624       -3.53668445288317       36.24740187277004
S            3.07825878617922       -2.76876601737571       23.71735527526635
S            2.15401900852188        1.29887507644736       29.93893597899582
S            5.65472065842362       -1.36077183969075       27.01133941976413
S           -3.27369187741573      -14.04748055933947       24.01391275625596
S           -0.70321881083621      -10.12576588925106       21.63302505739672
S            0.14979785840631        0.01565075329325       26.15845082557421
S           -3.00808403905720       -6.03428727974148       22.14940786722142
S            7.64916324955528       -4.99627533935089       33.97296829279178
S           -5.08977380404634      -10.81884989197267       23.25710837524655
S           -2.38674814150163      -14.48416976694219       36.57200928413929
S            3.43423510829082      -10.44667027757837       21.95831319523537
S           -6.79669254324069      -12.26776568930067       26.67058339188380
S            1.75721621895380       -5.42986297911271       22.20093285714841
S            7.55792308624747       -5.35266948120445       25.36282987619676
S            3.04590050688411       -0.27118143188439       34.84585467743867
S            8.50748025644912       -5.81259642691092       29.40203555396851
S           -5.91238775687153      -13.14833017031589       34.76849657193740
S            8.20717086451286       -9.98404201120782       31.54400654052316
S           -0.08684466065563      -16.97409571150653       32.21068232964714
S           -4.99710692437185      -15.48369264285555       28.08135725924368
S           -4.16976512838543      -15.82834873159454       31.31198076690952
S            7.77744117262127       -9.50083345372006       26.82595858245791
S           -8.10595431600806      -13.04963826374544       30.65987038835518
S           -1.42685653130040       -2.94199470345254       22.44887721323526
S            6.65781342598893       -1.69485345508629       32.29872866961419
C            9.87944931162810       -9.47290835493105       31.54110060931500
C           10.31135253220449       -8.30430493564903       32.15113680383127
C           11.62751749687479       -7.88856198167408       32.01394345324810
C           12.54914731318103       -8.63826418022225       31.28496508588954
C           12.11488981169097       -9.84764208820992       30.73585906606266
C           10.80003751719535      -10.25918636215995       30.85356012540959
C           13.99257138811306       -8.20067275411051       31.07639807887567
C           14.32835280288846       -8.24278148813106       29.57441186827623
C            9.02832337204894       -5.73230074534245       34.76756684979589
C           10.32192474726075       -5.35265759068043       34.43222789899842
C           11.41205495381100       -6.04024975265407       34.94706891166616
C           11.24280298257402       -7.13445418580327       35.79438909331110
C            9.93930226488672       -7.46001185853676       36.17717467460295
C            8.85175255386658       -6.76085672917998       35.68602355004712
C           12.39655205630189       -8.03350210911163       36.21488012049922
C           12.22112448961205       -9.36961213996437       35.46788363239357
C           12.37378913567055       -8.27725534648594       37.73252098268832
C           -3.48402507321815      -16.96473787989598       32.45396853111010
C           -3.52083014513554      -18.32149944931039       32.14387382614162
C           -3.04182840359539      -19.25634433236286       33.04706700273933
C           -2.51611922863121      -18.87487856881319       34.28486713341621
C           -2.46944987912813      -17.51462659239274       34.57481257550592
C           -2.93960548464941      -16.57673606019806       33.67118040412407
C           -0.14020947636990       -1.86805149729628       21.94873276369981
C           -0.03565665732759       -0.55206581721818       22.38835585856426
C            0.99247932186466        0.26292207060591       21.93788075792565
C            1.95164520017649       -0.20639527596732       21.03984913355693
C            1.83130343863766       -1.52589998951022       20.60213438805746
C            0.80724673138696       -2.34437327933530       21.04811783990480
C            3.03540984023429        0.71234889097136       20.48981889036091
C            3.43420379600083        1.78851727189395       21.51269973015799
C            2.46532138960338        1.39719441972045       19.23373123985700
C            4.29873267296073       -0.07457303517831       20.10292368735599
C           -5.79670711861454      -14.33428435582268       36.04338169782346
C           -6.15340154582214      -13.95092829143112       37.33412074173312
C           -6.13447068866159      -14.86728346041739       38.37173529816616
C           -5.72414769461757      -16.18741065129850       38.17049293058494
C           -5.34654508526726      -16.55292562076212       36.87927306778974
C           -5.39300933241375      -15.64509871535164       35.83258006079677
C           -5.78140401433398      -17.19182380875718       39.31350927307400
C           -4.92628594701085      -18.43704937156773       39.03332291562897
C           -7.25167664328539      -17.62169152217924       39.47444941835371
C           -5.29296082270819      -16.55796216686804       40.62770951797710
C           -6.34008326282870      -10.44643821869825       22.08642156401612
C           -7.14984129013151       -9.32719970736063       22.23503226790227
C           -8.14430082265647       -9.04374910512321       21.31091763299916
C           -8.36255607620348       -9.86741692581782       20.20794750721212
C           -7.55747627012015      -11.00371186838658       20.08319800834435
C           -6.56086546508345      -11.29041559383189       21.00232888023436
C           -9.39819677906556       -9.55224534385578       19.13496129387913
C          -10.18134089507752       -8.26818766826239       19.43617810206714
C          -10.40376459444027      -10.70859456075696       19.01389914104564
C           -8.67464708855183       -9.36573075815518       17.78954348894124
C           -8.18020760888943      -12.44990896588758       25.60730452832886
C           -8.45676221849731      -11.51888222382670       24.61374974650448
C           -9.46772455443812      -11.75564012947473       23.69939228084413
C          -10.24232513715729      -12.91754463418648       23.75862326200180
C          -10.00186958088054      -13.80377043024439       24.80638365780466
C           -8.98314285340842      -13.57576977479612       25.71860128756023
C          -11.24885994535984      -13.20594094000283       22.65295684070209
C          -10.45296266033009      -13.45543043218463       21.35861275849288
C            6.21737724900174       -3.61981908897498       37.13398789479886
C            6.64557787732699       -4.78543006471122       37.75334816353494
C            7.91026953518957       -4.86617813030244       38.31620556780703
C            8.78270437220031       -3.78093958848060       38.28168844706523
C            8.31383594324662       -2.59333554924207       37.71768738240777
C            7.05606520121398       -2.50919757959047       37.15226934256707
C           10.21034494062258       -3.83306378652518       38.80618357623805
C           11.17501347146541       -3.48236657384626       37.65858415166856
C           10.36832824220085       -2.81316206696567       39.94732058795600
C            2.26031803086816       -6.48572391796041       20.90163590758414
C            1.73276397958762       -7.75161108734808       20.68847964073455
C            2.21872611092467       -8.54484089411939       19.66483392855323
C            3.23344454705336       -8.10062673370918       18.81521594204035
C            3.73246966450109       -6.81609290806023       19.02110560216031
C            3.25801905316851       -6.01989543299559       20.05236409308247
C            3.71927695770864       -9.01143261161050       17.69554561102077
C            4.91448283327077       -8.42221920349461       16.93309656193443
C            9.76595223772799       -4.71236085317885       28.88652699105458
C           11.09570286728593       -5.10589568699096       29.00324953591144
C           12.10587494262496       -4.28740844328884       28.52618034033978
C           11.82531276448727       -3.05360184611585       27.93085270890869
C           10.49079070040029       -2.66366821598004       27.84568643223650
C            9.47617974259088       -3.47973658847312       28.31919900548150
C           12.96233305054620       -2.20982989994529       27.37057700355943
C            4.66300328463608        0.29407663915901       35.15902658136400
C            5.13508103732827        0.45367712344983       36.46019158481378
C            6.40219067052488        0.96433075373115       36.69150479945807
C            7.25038195561596        1.32290810814500       35.63879681866286
C            6.76475931873440        1.16407893240432       34.34201277874846
C            5.49206457420979        0.66732836821833       34.10521084532783
C            8.63313328422575        1.88557727042823       35.94464948003696
C            9.45570152936375        2.14337723468566       34.67500626964819
C            9.41922672273996        0.89175351018238       36.81685615353814
C           -5.71375080313393      -16.11013554376680       26.62507095837274
C           -7.08651065164989      -16.34286972586821       26.57009987082386
C           -7.66964714305106      -16.85057180190471       25.42317880535647
C           -6.90558643172228      -17.15773559469634       24.29346753947546
C           -5.52942063277496      -16.95400596744061       24.37125481542997
C           -4.94002690779040      -16.44282181200118       25.51802887267251
C           -7.60400551409156      -17.66807139838568       23.04075138568366
C           -3.22873892992947       -7.08722535588640       20.77450334976241
C           -4.36688643067022       -7.88155126294332       20.66606746114790
C           -4.50565784641298       -8.75397202794845       19.59985095475801
C           -3.52937001851055       -8.85318322380149       18.60525107361394
C           -2.41393086644078       -8.02440200902221       18.70736529494535
C           -2.26303988998826       -7.15814823718299       19.77796179346731
C            6.87074744134697       -0.49486713874255       27.91426663902608
C            8.03338767856286       -0.06525512690777       27.28485120788615
C            8.93765394621431        0.74698277010795       27.95237814460724
C            8.71950036779510        1.13829512772818       29.27222738257931
C            7.56618319403753        0.66889237097598       29.90521663027016
C            6.64911011936984       -0.12105849416129       29.23557759766880
C            9.68763152044478        2.02646459386166       30.04133950120522
C           10.79528532752537        2.60186827315483       29.14777616204930
C            1.24640868708985      -17.89377390219196       32.84578082026957
C            2.06693796126526      -18.67477382767289       32.04082400065017
C            3.03640246936273      -19.48135317175232       32.60765734245554
C            3.21139449011776      -19.54615844989745       33.99221532684057
C            2.40026577135290      -18.73732583370575       34.78691325600867
C            1.43651357569276      -17.91417168178938       34.22433828616482
C            1.44543701684814        1.12520907089869       26.56101513028473
C            2.72849508301025        0.69465701115848       26.87089247793343
C            3.75027742282321        1.59950199618749       27.10410853251329
C            3.52020806957803        2.97054535651505       27.04970626209111
C            2.21929409545349        3.39666638206165       26.76552637687292
C            1.19629926225955        2.49427789330284       26.52180380981875
C            7.58475250290746       -5.08248756624118       23.63479994090324
C            6.60881576618411       -5.57583772527756       22.77797323075618
C            6.67237345093362       -5.32244960029487       21.41827913110008
C            7.71040611731857       -4.56613179937890       20.86862435087750
C            8.70717450954545       -4.11318023810435       21.73253318776390
C            8.64766580916234       -4.36559485032928       23.09487213054835
C            7.67970559308818       -4.21900664400609       19.38615308424365
C            8.89998604919183       -3.39697761188569       18.94761961972211
C           -1.28454219542077      -15.44191644896389       37.52821043433796
C           -1.74874005649487      -16.11069317112087       38.65784123743675
C           -0.91041040028696      -16.95905192759539       39.36298125203216
C            0.42108015835810      -17.15013566189999       38.98347382083950
C            0.86856791048560      -16.48543376250906       37.84411287733973
C            0.02716287815393      -15.65336273569675       37.12377709368169
C            1.31559532261239      -18.06968071162570       39.80347687833656
C            0.80211308934493      -19.51363486375361       39.66846483623925
C            2.77750826422904      -18.02711358342314       39.33908475538438
C            1.27348820167254      -17.64017242446198       41.28065104395038
C           -0.24885103342083      -11.36130084816530       20.48130455114918
C            0.16745631899477      -12.62915575271364       20.86294655563862
C            0.61630614348597      -13.53810961446818       19.91623355622086
C            0.65310476245799      -13.20976573412229       18.56305953623978
C            0.21293932657129      -11.93824306273542       18.19020250013391
C           -0.22853122418366      -11.02350420334640       19.13220507789000
C            1.14447093667917      -14.17175731509052       17.49059164162437
C            8.37612579613196       -1.87560463622099       32.51972771438190
C            9.20102586365165       -2.12741285209477       31.42640455652490
C           10.57281068212242       -2.22828417590709       31.59202748284508
C           11.16495115391717       -2.09310218166217       32.85023797766058
C           10.32772936064706       -1.82930231249844       33.93416215548882
C            8.95606206057052       -1.72022374163925       33.77346843669535
C           12.67786378594079       -2.18860709885441       32.99183325439898
C           -3.81053413564046      -14.16428776113308       22.36026859161593
C           -2.89061753838461      -14.14038067566974       21.31693729832995
C           -3.28726445305639      -14.41169947674957       20.01551488585075
C           -4.61510913916410      -14.71093758422987       19.71387950798132
C           -5.53973373803546      -14.67279063720155       20.76170744428493
C           -5.14837878646354      -14.40843556702818       22.06322349344658
C           -5.08935540184198      -15.11894006777948       18.32516010277174
C           -6.18113895915770      -14.14772012565923       17.84270887178790
C           -3.95420583307457      -15.13776450200968       17.29286186228317
C           -8.16145585620203      -14.51875588302608       31.61465124500923
C           -8.23818576777289      -14.45983833576875       33.00173207462893
C           -8.23347802270450      -15.62016396289097       33.76459467085218
C           -8.15915091565311      -16.87683567033348       33.16832233139792
C           -8.11981736591885      -16.92575902898161       31.77233800938931
C           -8.13346714773821      -15.77266158007220       31.00980322107631
C           -8.07904192606310      -18.17246509443755       33.96471676972465
C            2.90523180182318        2.14821435633591       31.26322575355855
C            4.27248529965441        2.39271623460535       31.17264837830644
C            4.90414633217375        3.20177769413738       32.10490325118828
C            4.19848313726170        3.76925471933917       33.16452686865023
C            2.84049055943471        3.46215616263077       33.27744269234837
C            2.20102307340814        2.67046801540954       32.34122300619889
C            4.83201197116395        4.72549300965232       34.16518325358400
C            4.67306287475200        4.16503737301522       35.58876278574648
C            6.32486467596694        4.95161136230560       33.89124244819802
C            4.45329670130789       -1.70317655665270       23.56616403148579
C            4.51967410662944       -0.43103448145750       24.11592025629818
C            5.66397453663483        0.34128551087249       23.97826565406163
C            6.77087610050688       -0.12924972575734       23.27581286082471
C            6.68468860067691       -1.40355859875364       22.70850993332784
C            5.55169266456693       -2.18400224551262       22.85565064512459
C            8.02766456017829        0.70200595406203       23.05895888789827
C            8.05032921301540        1.96620546581300       23.93023072242595
C            9.27882877160361       -0.13393451478834       23.38440687236743
C            5.16497952065840      -10.28240208533259       21.79877023257573
C            5.93655051747200      -11.24371467921603       21.15373737043203
C            7.29845071859264      -11.04445125572456       20.96464464673737
C            7.93161247105213       -9.88565740646509       21.41188211780179
C            7.14338127226604       -8.92453038498701       22.04877643826439
C            5.78721748026680       -9.11475416378907       22.23062674009265
Au           0.77823728271871       -5.38192598935636       29.18932272965562
Au           2.00089246158413      -14.81759068061830       30.52645050347055
Au           2.06081235369103      -12.94374757323615       28.18046062074975
Au          -1.60943617460256      -10.32747026221475       34.21906111543835
Au          -2.68240593826725       -1.17102384378196       30.45660097732825
Au          -7.03402811669886       -7.88665431899654       29.35902022703967
Au          -1.78342762654521       -1.63190654559972       35.66601829246364
Au          -4.64382444487510       -2.70788392771316       31.97953875125287
Au          -6.08309206343918       -3.69111843860712       29.63701679520564
Au          -8.42009158135586       -5.36240768864643       28.99387487902684
Au          -2.02400959579446       -6.36107266502928       28.84375229573628
Au          -2.85295864663850       -7.96059856225231       31.21760006353751
Au          -0.53865973960518       -7.83762419529856       33.19645506498226
Au          -1.11626622376594      -10.42966151615415       31.42706921273469
Au           1.65666665010487       -9.45476820404842       31.92588064733228
Au           4.49445767557447       -9.59689070720219       31.07841907243433
Au           2.87218248237409      -11.99082823947963       30.85878905446484
Au           3.57027659964944      -10.90000859584031       33.67257574931161
Au           0.83415738079741      -11.94977503866909       33.19653472678637
Au           1.19998460314458       -9.53751367326521       34.83818333967048
Au           3.48177974864389       -7.92883339157767       33.47490791693235
Au           3.70819267438462      -10.42429013264331       28.31599113880518
Au           1.39678586864311       -6.18339477883618       34.77438831420485
Au           2.10396340077860       -7.99407960116542       36.94060235613085
Au          -3.29520242540803       -7.88874195508563       34.09023042534997
Au          -0.72277819523358       -7.71415230575036       36.23807256973632
Au          -1.40545882686752       -5.32064973486077       34.42044344314630
Au          -3.72614221132284       -5.47705835496290       32.47424240605159
Au          -5.69563828121929       -8.02988724859758       31.99079111290225
Au          -4.80909514000510       -6.27230445198731       29.74991945923155
Au          -3.12265467613606       -3.83070768270634       29.88649209051271
Au          -1.18491345836894       -3.78155632999533       27.57548352112347
Au          -4.03217970285132       -4.89169106249215       27.25881207721041
Au          -6.01574552021999       -2.85321046085003       26.49691853814188
Au          -3.43448440187949       -1.93681283038087       27.70826247863484
Au          -2.72864388691593       -1.81601303077834       24.12270941058468
Au           0.39727056043208       -0.92210826953732       32.38072014676081
Au           4.08219806323461       -6.03810398546185       36.12069504146670
Au          -1.87770392520124       -2.80500833623417       32.87757109891144
Au          -5.64289881387847       -6.49346567432523       34.70912260850789
Au           6.31099099505259       -9.73802104694735       33.50254833906089
Au          -6.26464346089284       -6.93255228565743       26.60695250479720
Au           4.75695635226826       -8.84522871227978       35.80452927482755
Au           3.65028084538912      -11.72403136976423       25.69881232430895
Au          -0.45377621883815      -14.64338312795609       27.76449808381711
Au           4.74943523324201      -12.92838372060354       35.47061332700307
Au           3.02036247173647      -13.80256845709194       33.15478952090044
Au          -5.66478427183705       -9.42049075035896       34.68028950146157
Au          -3.95755034395332       -3.97793009918306       34.83200119599029
Au          -0.75155248671642      -10.69166945808942       36.86916557676220
Au          -3.32246255779129       -6.32501749960606       36.50222183905975
Au          -3.32494382054064       -9.25585976828225       36.52157647369430
Au           0.74206430237910      -13.07829952675803       25.59515519105331
Au          -6.49084488933858       -5.15553502860470       32.07912748536048
Au           2.84355445318456      -12.50752143195093       22.95717662279389
Au           5.58505254819524      -11.94690930964429       29.73194703180306
Au           1.62052179956797      -12.08164191759776       36.11508495160253
Au          -6.89283704226430       -3.40067042667677       34.47653916730960
Au           0.38312867810858       -3.73144573972340       35.91275106266205
Au          -7.96290350645829       -9.97535825198190       31.48881668523984
Au           2.71941800560295      -10.50128522591667       38.36172418626600
Au           6.31353307581899      -13.86986439800851       31.74270413331518
Au           4.79575256097486      -14.03899809477307       27.72020639242812
Au           0.36400301698785       -5.73850537280646       38.25713600472307
S           -4.98225517714556       -3.54632514566016       24.42937433751153
S           -3.37320131663445       -2.81854171092061       36.97431909172652
S           -2.43244628028283        1.27467313912450       30.76071660708871
S           -5.95460774374794       -1.39281882634353       33.67187236420936
S            3.02725724625489      -14.04153565614675       36.68179627958192
S            0.48508657136958      -10.13924746988933       39.02119052765712
S           -0.46247151672580       -0.00560109905719       34.54151342533570
S            2.76318465273112       -6.03455621189293       38.52334219673899
S           -7.91952640231141       -5.02512527831764       26.69692477883192
S            4.87413926657632      -10.81023943649687       37.39861004791036
S            2.20851547837664      -14.48265738121813       24.09706577201180
S           -3.69891936145565      -10.48087169296239       38.71345855004073
S            6.50138401726795      -12.26148804668335       33.96024186744059
S           -2.01455663605726       -5.48799908425661       38.47280733807470
S           -7.84288868068031       -5.40504705966874       35.28382859208559
S           -3.34831504478527       -0.27289953085215       25.84857965267946
S           -8.78878081757299       -5.86422388931372       31.26187184407549
S            5.78649714495423      -12.96850192958546       25.83156858605851
S           -8.45256697444537      -10.03403808543189       29.11609380155311
S           -0.14360749768082      -17.10165390267781       27.54013410915078
S            4.70975193191969      -15.51907383885641       32.55799347940584
S            4.02127820550969      -15.63634352814494       29.29866635747758
S           -8.02147299126535       -9.62175138395382       33.84410985389962
S            7.85468567514900      -13.05048729457444       30.04388192599265
S            1.14064352041822       -2.96164549628703       38.23771154606776