1044
 energy: -1914.637625401327 gnorm: 0.000714420250 xtb: 6.5.1 (579679a)
Au          -1.09610801232134       25.11460103414973        9.52860952749183
Au           1.08558536787939       25.98922429901474        7.84359602715179
Au           2.97964836221093       26.07729145641021       10.05568523078340
Au           4.42707165615916       23.59921316303182        8.96601215546723
Au          -0.37803254153421       28.51874026878158        7.40058800236957
Au           0.36013058452187       27.68811838911536       10.15480541255091
Au           3.99763101808968       26.09337479680354        7.30948804028330
Au           0.78479591318108       25.20123646526666       11.81049259392601
Au           5.56148175744910       23.53921760443485        6.18176728292665
Au           3.45619892624286       23.57951151843850       11.81503905822165
Au           3.37575987206725       28.56188264675798       11.30615795133997
Au           0.46638071790658       30.46157226818502        9.57571848727896
Au          -2.11897182024055       29.61687518471148       10.91563067368139
Au           0.76496616523308       27.99439202748433       12.93286972224034
Au          -2.15488177941392       30.65945711407418        8.07307943917347
Au           6.63941098417032       25.30887696484682        8.37298305757823
Au           1.66157195526425       23.43648380702215       14.14661554434283
Au           5.29658545101430       27.96553298425869        9.10948841515521
Au           5.50894635301993       25.68518705657352       11.14479239383876
Au           3.17329183238084       26.19535434664605       13.10287389559739
Au           8.19891298382511       23.64274423918044       10.21462357228619
Au           0.76095059501281       30.89991004246534       12.51791188346103
Au          -0.23912932303336       32.97847760235744        7.24234012132579
Au           1.24219933167021       20.84359642121226       15.66243293198272
Au           6.11882355792574       28.31940306503070       12.53199736736862
Au           7.72038396290558       28.24218983699792        7.31093916954244
C            4.15691165784943       19.36140614097728       15.94871983415223
H            3.45730868204127       18.59236681808106       15.62694082862739
H            5.11996429076677       19.18562243694364       15.46950539048884
C            4.30190220277234       19.37636286443817       17.43679882669782
C            5.55597450480743       19.56212282915641       18.01260940429608
H            6.42867562584979       19.66128084208556       17.37639995050621
C            5.69231678394739       19.61215979289811       19.39229781255733
H            6.67338993217090       19.75547161967597       19.83103378111570
C            4.57670628059033       19.48226347247919       20.20761329423220
H            4.68241591879610       19.52714668613311       21.28537834405537
C            3.32388670317255       19.29230838683064       19.63925498370009
H            2.44940107287251       19.18572704113745       20.27149477817917
C            3.18847393887811       19.23860363068653       18.26118961076482
H            2.20826277964120       19.08984122837747       17.81983146172811
C           -1.43208176166275       21.07612791430789       17.71246716246753
H           -0.54593718635570       21.47319516230546       18.20336397751093
H           -2.21863527434123       21.83026406999747       17.71909210690972
C           -1.90024789545700       19.79450143529201       18.32531827930178
C           -1.01846282571961       18.95077943061488       18.99595654205402
H            0.01006117987243       19.25816206482065       19.15277969175539
C           -1.45640863881816       17.72252224210521       19.47258074921467
H           -0.76692449883865       17.07459436078819       20.00203818817564
C           -2.77070301684555       17.32159300403645       19.26830612385911
H           -3.10697245568609       16.35823432448446       19.63412787398983
C           -3.65324797901159       18.15934877212226       18.59842592498861
H           -4.68003903555707       17.85184437312388       18.43421730668253
C           -3.21919886276764       19.38913399594050       18.13097886971961
H           -3.90003239130014       20.04968291267503       17.60495439003999
C           -2.26608975121119       32.40627199208802       12.90005274804841
H           -2.10017599428701       32.83049293556006       11.90974841065146
H           -3.33907648921650       32.23554467628621       13.01673725087500
C           -1.78067671380094       33.34024873373447       13.96812870799584
C           -1.55865624132531       32.88276592085393       15.26478889093286
H           -1.69795833026269       31.83058266121893       15.48749748773233
C           -1.16947653400679       33.76312801196443       16.26197482674126
H           -1.00529206409199       33.39837425075306       17.26965629206573
C           -0.99495645546344       35.11028698752789       15.97341291089606
H           -0.69935890926668       35.80033918152408       16.75522780179854
C           -1.19976470707048       35.56999877587476       14.67978135186949
H           -1.06078204141170       36.61953839474101       14.44638700082672
C           -1.59111401731038       34.68864438658488       13.68179322093780
H           -1.76177232300927       35.05564996061862       12.67550371086211
C           -3.05965677515534       34.06106638530446        8.60885474665946
H           -2.31092959706238       33.79654510929012        9.35165335968914
H           -2.56554591393337       34.52986481371293        7.75848515473093
C           -4.08978545639699       34.97441010689415        9.19204037206362
C           -4.73685849625437       35.90771922377583        8.38560873463426
H           -4.46969756583620       35.98863715012704        7.33739783700036
C           -5.71403967788870       36.73505567940973        8.91993944860268
H           -6.21323686360741       37.45829935533021        8.28506568825018
C           -6.05153959582069       36.63821449645704       10.26298549864254
H           -6.81499838471662       37.28495802454350       10.67964028139658
C           -5.40645289166252       35.71317060868262       11.07246683178370
H           -5.65979277342469       35.64040594441280       12.12401253218983
C           -4.43274390164031       34.88308783909709       10.53875759221116
H           -3.93075022538828       34.16150801736085       11.17436902294959
C           -0.69833335200452       33.76348405507026        3.97080693601673
H            0.04437982560897       33.10779920127889        3.51606713762994
H           -1.46537132021065       33.97798685317640        3.22333063160510
C           -0.05596824133888       35.03278819398975        4.44030501135420
C            1.24643248256843       35.34108873330443        4.05652552268055
H            1.78736834054516       34.66859196051919        3.39903329178930
C            1.85124754609548       36.51101095763330        4.49691963149459
H            2.86740990000791       36.73719247678123        4.19416559579331
C            1.15821070993532       37.38202805540700        5.32469721623945
H            1.63107893387790       38.29297176584527        5.67294917186444
C           -0.14532083970327       37.08601517653242        5.70125317309397
H           -0.69290690614463       37.76585725639005        6.34401221892018
C           -0.74988940172405       35.91923761418310        5.26172267936672
H           -1.76770085008061       35.68958703759667        5.55696744669016
C            3.97032227053402       31.18948273683040       13.51653012889064
H            4.06796109538819       30.25227222579309       14.06229790525745
H            4.96842363068012       31.49343918727342       13.19024430115877
C            3.38300741418938       32.24289053249058       14.40964269606506
C            3.53959102747541       32.13124438098233       15.79000796710259
H            4.09729134586367       31.29781738337973       16.20419539667194
C            2.99150469267659       33.08183642527791       16.63879765799042
H            3.10901409808669       32.97583875352969       17.71130903281356
C            2.29266500093260       34.16114759814414       16.11658729729994
H            1.85957060596258       34.90063844657104       16.77991037349889
C            2.15618596542747       34.29333120653953       14.74215522052940
H            1.61961399934587       35.13883976590839       14.32657317239283
C            2.70063135922093       33.34096126922031       13.89411808386334
H            2.60156752287142       33.45416324174339       12.82141572469463
C            7.63174942916604       30.64514997409608       10.30045050117445
H            8.46408169751898       30.85465668968212       10.97320010560320
H            7.99082553592562       30.70826523747157        9.27150028851406
C            6.53365948476200       31.64115022658454       10.50748975036626
C            5.45863881443316       31.71544836224137        9.62635831228249
H            5.37947602896666       31.01061168476981        8.80664512583257
C            4.49637711157750       32.69979531476664        9.77488844139200
H            3.65236498438233       32.73070951569323        9.09617666172208
C            4.60235652263920       33.63436789636709       10.79627314024549
H            3.85857811888931       34.41640922129326       10.89658282865184
C            5.66145063261260       33.55942512187886       11.68906547109946
H            5.74835877929707       34.28076821866678       12.49377532581217
C            6.61737311067708       32.56040146781130       11.55167555289616
H            7.44970637022100       32.51272136012270       12.24594680347794
C            9.74337762880644       26.73156414725150        9.40121276299157
H            9.00482882687848       27.00121725573724       10.15590028111800
H           10.27433470885065       25.83521177339396        9.72963527120858
C           10.70636207496135       27.86169919484171        9.19258187311368
C           10.75027641573418       28.91610218118230       10.09952091596965
H           10.08939285899722       28.91061401842260       10.95947202176617
C           11.63391941087886       29.96875716700643        9.90810789109298
H           11.65714533670689       30.78786839748172       10.61816487403329
C           12.48355143696299       29.97310867930586        8.81110017988802
H           13.17434703460934       30.79497530433315        8.66196447117541
C           12.44617708588872       28.92192282440411        7.90399259119636
H           13.10577404868230       28.92289558011591        7.04350870227455
C           11.56214367700373       27.87203022576628        8.09339403764516
H           11.52403850951023       27.05446713622974        7.38160125464847
C            8.75525011165558       25.81364848810436       12.84165448081241
H            9.59475647009231       25.88381336445531       12.15312406681773
H            8.30161680480700       26.79840245810275       12.95239059512560
C            9.17399465124855       25.25925117835011       14.16811996837100
C           10.42067326785275       24.66064377530062       14.33036986587643
H           11.11487545627855       24.62506049068785       13.49732973614033
C           10.78219543114320       24.11829768735894       15.55591856403306
H           11.75638720334161       23.65730316593108       15.67396958304163
C            9.89841466460889       24.16169075850246       16.62484935438855
H           10.17990981419563       23.73550120293752       17.58099476291126
C            8.64669715596850       24.74314211714189       16.46275025852549
H            7.94901327893677       24.77037264611240       17.29181616276399
C            8.28355567599620       25.28458448130489       15.24086074168122
H            7.30041368297822       25.72620486456060       15.10977160723952
C            4.96616492489915       27.97840814518456       15.76798522924883
H            4.29653755392081       28.80921372530668       15.54719518840925
H            4.48193444455319       27.30809007572221       16.47819584091475
C            6.28472866192415       28.45222218768085       16.28814322412765
C            6.89783916436551       29.57771298741489       15.74216374213339
H            6.38923490484389       30.14823607099813       14.97209576868815
C            8.15328229314302       29.97296941150254       16.17697119759815
H            8.62260088432634       30.84905178276954       15.74362946312108
C            8.80840455991730       29.24619415976062       17.16250225770067
H            9.79281562578795       29.55155164496527       17.49792113751441
C            8.19910739553967       28.12945717196966       17.71745356543243
H            8.70538001379406       27.56018405139244       18.48891281172700
C            6.94328551603311       27.73264964003198       17.28188059002320
H            6.46897925038096       26.85971834150451       17.71769746943094
S           -1.57043609621891       32.90737446026324        5.30465925134290
S           -3.85171599040654       32.55684507454831        7.97917117092986
S           -1.51546622558858       30.77046913179374       13.03604951116349
S            3.04285870689579       30.92139458799852       11.99054779130818
S            7.21045711856386       28.89732899412186       10.53687340086047
S            5.26492620274737       26.99380653590564       14.27712253483159
S            8.92031078255751       26.29133653619662        7.85196360835418
S            7.49625258179530       24.66175867907429       12.21435170196315
S            3.57547221158667       20.98638778939125       15.39244724923618
S           -1.07667023892582       20.62512553497259       15.98513858809986
Au          -1.07755725691847       22.20636023077627        9.53596200785573
Au          -2.95952930128566       23.61091509229634        7.88011795083790
Au          -4.07643245205509       25.02761443467358       10.37129359844025
Au          -2.61350182055632       27.59142397599724        9.06936001998421
Au          -4.47236413234729       21.20347905163886        7.30964236303461
Au          -3.95578059034163       22.10256805782033       10.31740712173313
Au          -4.52156644992364       25.98905692940071        7.46961657932468
Au          -1.91782596281069       23.75663299889808       11.94150473800740
Au          -3.24963775997470       28.55123892844870        6.29574903519094
Au          -1.84078432643148       26.86742712869123       11.94015082496807
Au          -6.49671905322955       23.29250180474340       11.38966627396450
Au          -6.43804075038496       20.93483229694958        9.57256237228448
Au          -4.87930432293909       18.79576787434666       10.73696030015862
Au          -4.25325334332932       22.47458914377913       13.20504164795135
Au          -5.33768291210860       18.54603964627663        7.99097169276822
Au          -5.13025903057910       28.85641173836748        8.55106430120317
Au          -0.62973836588588       25.39655036240839       14.20097045426735
Au          -6.61352772636088       26.40598018804738        9.44976859337358
Au          -4.59699163604014       27.65106492658283       11.23755177619853
Au          -3.86410313642251       25.34015560788115       13.40722005691048
Au          -4.49744338188412       31.40180936725791        9.91983183635886
Au          -6.15474906760172       20.34362435690546       12.96100704019011
Au          -8.22138920794639       19.03839791652938        7.30983300597153
Au           1.63666688551226       26.59644313796475       15.68727161741860
Au          -6.38421618553533       26.73512890794604       13.32695346676124
Au          -8.00634785264981       28.21462216543433        7.54480545395633
C            1.21995183270028       29.89915061028842       16.00735384115628
H            2.23720847246104       29.86747035072604       15.62366032635088
H            0.72903024414080       30.80114205459643       15.64150282186611
C            1.19669425795470       29.83541634650265       17.50180848629777
C            0.19317844473620       30.48146678422950       18.21882706666870
H           -0.54580030746628       31.07539422668442       17.69283541448887
C            0.13085453532210       30.36523802452588       19.59982645272987
H           -0.65844342565654       30.86884518145926       20.14643750539350
C            1.06743322716255       29.59805211230810       20.27808452782027
H            1.01329502934583       29.50072194626047       21.35617870087336
C            2.07470855041106       28.95554857757324       19.57052714959277
H            2.81278150237699       28.35796291958599       20.09400829263493
C            2.13799134482674       29.07460661886086       18.19108111530070
H            2.92713487014097       28.57114707850088       17.64409336434637
C            2.62469249970986       23.93505460518778       17.57170129492096
H            1.82940207173644       24.47399924725916       18.08323089043358
H            2.33353432522379       22.89238333945966       17.44997258199397
C            3.93669636572271       24.05330527085824       18.27936999413024
C            4.20871987189042       25.14760349953024       19.09683875425126
H            3.44678553966855       25.90325585334315       19.25835048504666
C            5.44843537558364       25.27090738522242       19.70804975628640
H            5.65091136301850       26.12148281203294       20.34923038865962
C            6.42457727697112       24.30367033193798       19.50561510714383
H            7.38937934342383       24.39633573067447       19.99091452081085
C            6.16104602718758       23.21813313140774       18.67938796124839
H            6.92038053340977       22.46127796722006       18.51902692537222
C            4.92776527486734       23.09827141886623       18.05966312429285
H            4.72705824291260       22.26207154367470       17.39662503065643
C           -3.82873929716846       18.30373749267022       14.50215228905941
H           -3.18587455236145       17.46627749677663       14.23147909922694
H           -3.33697116641471       18.89689393635894       15.27560491931638
C           -5.18754621442174       17.85276276387840       14.92065645393347
C           -5.94087639195546       18.63826536610559       15.79194762252918
H           -5.51268375646136       19.55261192566460       16.18309244168449
C           -7.21764721094065       18.24964570407377       16.16661417396380
H           -7.78858087397183       18.86418522783595       16.85325504603144
C           -7.76096270072593       17.07598058226458       15.66310220917343
H           -8.75938501344465       16.77050388495786       15.95408046502661
C           -7.02154140429652       16.29613202229643       14.78481780726959
H           -7.44290634997908       15.37805601959656       14.39157579955942
C           -5.74328881365454       16.68202140966270       14.41123467858376
H           -5.16950088883594       16.07369259256269       13.72164128401054
C           -7.64866418837153       15.77369654871320        8.77235213331350
H           -8.02018244385440       16.65723050103283        9.28824329362057
H           -8.24017666879168       15.61535249742828        7.87056724868410
C           -7.67295476144521       14.57298213915125        9.66218978639961
C           -7.78451207602259       13.29623818004458        9.11860723652211
H           -7.91258367267512       13.17773359308536        8.04803807039616
C           -7.72537193879499       12.17888679289683        9.93863125542386
H           -7.81158256051265       11.18847362155029        9.50613317405754
C           -7.55001019790389       12.32672514022322       11.30776389550816
H           -7.49984222175180       11.45337626506882       11.94773938281531
C           -7.43976677078140       13.59710130565493       11.85592275497879
H           -7.30610886854085       13.71650961574325       12.92490172511037
C           -7.49788762398913       14.71613906524419       11.03836193137650
H           -7.41644717282140       15.70692116915246       11.47273178940312
C           -8.76759670622007       18.10103531799485        4.10135556319949
H           -8.81834814629084       19.13286684164582        3.75147566630237
H           -8.41045153357903       17.48461257519407        3.27179711438566
C          -10.11818298412609       17.63176868763849        4.55727876048481
C          -11.26404408419431       18.26483295393170        4.08129411098782
H          -11.17372931455325       19.08109160587637        3.37301971314346
C          -12.52106383802105       17.85274994914541        4.49938620006595
H          -13.40386479411370       18.36141326464161        4.12859732417340
C          -12.64712729812079       16.79505686373752        5.38900407542409
H          -13.62900189831081       16.47283558036945        5.71596997748807
C          -11.51017680566233       16.14591820515647        5.85140740384647
H          -11.60071918521047       15.31481463945974        6.54173560596386
C          -10.25422723040246       16.56160280700752        5.43795024205111
H           -9.36908802530376       16.05413142525017        5.80472603700065
C           -8.75294121037587       22.36703781343991       13.95679941864061
H           -7.99678359135289       23.00935792548673       14.40776095214627
H           -9.55345577539872       23.01221074094244       13.58582347848001
C           -9.32159695701008       21.41829951313357       14.97297195648486
C           -9.34580235018614       21.78919693857452       16.31657801384588
H           -8.95257714731326       22.75437787823607       16.61776796868435
C           -9.88557235806515       20.93932010879067       17.27117204658103
H           -9.88860540263078       21.23588805414121       18.31399841923529
C          -10.42242343355051       19.71643044645024       16.89186460878789
H          -10.84510085304457       19.05294411750366       17.63734464011460
C          -10.42456819555682       19.35250036494825       15.55178963033435
H          -10.85477151761348       18.40558312422170       15.24560732252372
C           -9.87564391547084       20.19772883439742       14.59961726936543
H           -9.87540812939524       19.90830571619829       13.55483063962351
C           -9.47299735192250       25.81187955454553       11.92416294994759
H           -9.66358832067319       26.01414075565035       12.97820215860962
H           -9.79883682216936       26.67550534358128       11.34075638314386
C          -10.20628391005898       24.57940594640625       11.48206628354191
C           -9.93132575357295       23.97714093935355       10.25649529316740
H           -9.16324722033182       24.38935224865492        9.61359087688865
C          -10.64011326606323       22.85975931103248        9.84673649238432
H          -10.41577510401990       22.41035329665533        8.88589108266873
C          -11.62070296051847       22.31598450545792       10.66421590582013
H          -12.16806176850476       21.43586389830987       10.34669747540615
C          -11.89970840346451       22.90637402060803       11.88810284651032
H          -12.66611314509578       22.49017011894137       12.53215691572386
C          -11.19979998910584       24.03553937288102       12.29507376627025
H          -11.44126345176700       24.50770408743859       13.24171677468109
C           -7.80523313963668       31.51759595032211        8.35660596339704
H           -8.70422011607693       31.08443667972351        8.79046636884823
H           -7.15855588374772       31.88008067817502        9.15535916259697
C           -8.11986716292221       32.60008811362016        7.37205850563139
C           -9.22679007943192       32.48443495905492        6.53219076827524
H           -9.89384142268888       31.63498339248346        6.63599291148856
C           -9.47314147042618       33.44455664177197        5.56291297704970
H          -10.33444977536307       33.34423857968676        4.91199979350418
C           -8.61523397564576       34.52744105005673        5.42061015008679
H           -8.80368060891145       35.27314069860939        4.65690709558722
C           -7.51205902243453       34.64706717396478        6.25365612055714
H           -6.83457775141481       35.48599082998970        6.14153668144605
C           -7.26033007459659       33.68487635720789        7.22003333287471
H           -6.38268326870503       33.76929172528205        7.85147766497211
C           -6.40561615522119       30.62879331978809       12.76171865778365
H           -7.14370790474809       31.10222860293113       12.11567566912379
H           -6.84128065299318       29.73592203393792       13.21154732268905
C           -5.89090577777986       31.56327332570152       13.80927965335408
C           -6.10473320058045       32.93580249254111       13.71342062068193
H           -6.67818521327526       33.33567177933536       12.88378036072000
C           -5.59251812607799       33.79180233187041       14.67923908865722
H           -5.76427234230329       34.85934332939863       14.59739128116301
C           -4.86480501283688       33.28529634989059       15.74651755627722
H           -4.46529138226763       33.95510341643337       16.49928819033485
C           -4.63905956528445       31.91756126546723       15.84097879049003
H           -4.06645347566074       31.51700666689434       16.67030048782136
C           -5.13837456953144       31.06261142916260       14.87250846724854
H           -4.93574636043037       29.99736291698086       14.92656257243706
C           -5.21274069107810       27.27266330308625       16.34647271005605
H           -4.84272218925714       26.32240092759605       16.73012977345966
H           -4.77062909543746       28.08007334790975       16.93129874269425
C           -6.70628369760186       27.33189898057527       16.37108467684082
C           -7.45283897183479       26.17953973562219       16.11762426963784
H           -6.94430035691866       25.23073325411428       15.99327028067997
C           -8.83640442124422       26.23666299655458       16.03510427217160
H           -9.40196019749616       25.33244051791346       15.83814647715669
C           -9.49032078539414       27.44969469428336       16.20514388470255
H          -10.57073328195865       27.49896117275284       16.13430340382004
C           -8.75578723226348       28.59775997050047       16.46844476865923
H           -9.26332510322222       29.54608624633024       16.60471542815766
C           -7.37143820994033       28.54139552607607       16.55048752285663
H           -6.80418934936215       29.44484390381787       16.74656558199236
S           -7.50300250528437       17.91374003474503        5.37977952209865
S           -5.94299021683458       16.04359838681959        8.21842011767379
S           -3.95944721321338       19.37493723048571       13.04365661765500
S           -8.10984802383667       21.55500293068046       12.47650207636178
S           -7.67961347758297       25.65084165565773       11.68321002377191
S           -4.60300380039497       27.51762295769017       14.65476237506138
S           -6.90145863762767       30.26987892025364        7.38379307321740
S           -4.97842039108438       30.07231581931304       11.77699010297236
S            0.27253695253010       28.49105745689940       15.36988374161965
S            2.92466653962242       24.64216790777105       15.92082834679235
Au           1.44640745539310       23.61088759430208        9.46676351612429
Au           1.04812633883485       21.28259983033090        7.79929224812808
Au           0.38301174021671       19.64769561693447       10.14671114691732
Au          -2.57414381403977       19.80335718054054        9.15587069456353
Au           3.91066453907277       21.09172055110950        7.21959386486979
Au           2.97087210984300       21.15875894829679       10.07231023983950
Au          -0.35227692456916       18.76688210878009        7.15003018153621
Au           0.65444720864406       22.09677992204821       11.90206669472488
Au          -3.11713483532434       18.67485147317975        6.07343766913459
Au          -1.91210984410188       20.67629229989307       12.07552713251520
Au           2.80278120684088       18.33350602445686       11.23875061547072
Au           5.08929590945887       19.34448418202487        9.54185137124659
Au           5.78553820612185       21.99683466707059       10.90042647838577
Au           3.14634719452748       20.81812721072429       12.89920118667466
Au           6.53466647046986       21.48482963188300        8.10509676737356
Au          -2.59056597890082       17.11217682504052        8.49640576249535
Au          -1.17487321225534       22.51074254419497       14.36292650275217
Au           0.24641673877448       16.76784236971968        9.01227686343142
Au          -1.49803405929641       17.82305321362553       11.17161539935017
Au           0.53863116172663       19.40652606711301       13.09915732788246
Au          -4.63900144349179       15.93285834947602       10.17217527630188
Au           5.77368313451077       19.50217833505369       12.78694240326846
Au           7.84272969285476       18.98253032950339        7.37728538026773
Au          -3.23109476168579       23.88167918563319       16.00287844850610
Au           0.63390700159025       16.45875368829504       12.78755196975365
Au          -0.16691753990163       14.63723146721781        7.07354518445840
C           -6.10024401985176       22.36507792286870       16.44180189761637
H           -6.46123318443686       23.29221751701731       16.00040239344669
H           -6.78135183590309       21.55659567502880       16.17995714811671
C           -5.96083657618087       22.48973508566316       17.92660498957995
C           -6.13936885718929       21.37912396219996       18.74781912368205