554
 energy: -730.767014508054 gnorm: 0.000548959700 xtb: 6.5.1 (579679a)
Au           7.92629498613577        9.36345184757993        2.21158747015047
Au           9.07645805835291       10.40173476221674       -0.25720001365480
Au           8.60290438611429        7.59732345638709        0.21423934867990
Au          10.23637356708142       11.30608563740084        2.34511892193135
Au          11.53415794427088        8.95990191502986       -0.25741730823551
Au          10.40613721293821        7.65605103108522        2.63504005450462
Au           7.10717900257060        6.41573318641251        2.51911970653241
Au           8.14971096609647        5.97910275711262       -2.10488139759619
Au           5.66439915908126       10.78147826514565        3.42538690317937
S            7.75200268984107       10.42259613162371        4.47846940176369
S           10.08270584223634       12.18810379935097       -1.74050201585564
S           10.15619804698258        5.96731854881693       -0.90456055831286
S            5.96891447080853        5.92246478126597       -2.99821227688012
S           11.64384117269505        8.62168365398713       -2.58402028574867
S            9.23350696139751        5.67810899642602        3.17744448934001
S           11.69216798646367        9.50369536827064        2.01203115692202
C            7.47214986493660        9.00836600553180        5.58884746117446
H            7.18999212910165        8.13436658755474        5.00806408395989
H            8.43930499453930        8.79333752162099        6.04422895329056
C            6.44619294891324        9.33313973691516        6.63470139944155
C            6.79444668560983       10.15633303165026        7.71686531802060
C            5.86044248814987       10.39874938604894        8.71972520316963
H            6.13948604666259       11.01741176495354        9.56531219874088
C            4.57928317094884        9.86230767073936        8.66084099596241
C            4.23247729606828        9.08987528907958        7.56001493792294
H            3.22967030373860        8.68195791350295        7.50470962767420
C            5.13853373552244        8.83097029625019        6.53474608143882
C            8.16516624728610       10.79804988976956        7.84689924796430
H            8.75330654020585       10.60159819816707        6.94352790348589
C            8.92137451769857       10.20991022400689        9.04396754283615
H            8.99694233709421        9.12791650208046        8.94174291269235
H            9.92716473107365       10.62792215344262        9.09433546665498
H            8.40563034463852       10.43276486404763        9.97842461384529
C            8.05685918874514       12.32211534489708        7.97929642370008
H            7.54173122702314       12.73341776840420        7.11228850896857
H            7.51131926691373       12.61004639258645        8.87768375621114
H            9.05412447909936       12.76081008540925        8.02645628190568
C            3.57576309681344       10.11104761889141        9.76509327089709
H            2.61530409977063        9.66970972091612        9.46468427462874
C            3.35841634816755       11.61230267185104        9.98797759806595
H            3.07716725296006       12.08980058351608        9.04940331150357
H            2.56002668230996       11.77125616680237       10.71332084537160
H            4.26505020626829       12.08955370819215       10.36072920602253
C            4.02766184255244        9.42733140359298       11.06177973035538
H            4.15172514048200        8.35700773431625       10.89484066240405
H            4.97784747652744        9.83874180575292       11.40384234195604
H            3.28263011382444        9.57460715432754       11.84418817384898
C            4.67540977999871        8.01086082653970        5.34332639192996
H            5.27526565665248        8.28902306681931        4.46730856087428
C            4.87898240385123        6.51105288929254        5.59315175864128
H            5.93506034464999        6.28875020810599        5.74885004673643
H            4.32120052207242        6.19255905087831        6.47421256640486
H            4.52851046160258        5.94058237401165        4.73220653035930
C            3.21430238547051        8.28965443138467        4.97303141579419
H            3.00181095858482        9.35678522026893        5.02396310186532
H            3.04036304278910        7.96073859754656        3.94822155952003
H            2.52397641010689        7.76095306311882        5.63023744382520
C           10.49955478835127       13.43883412942821       -0.48996982537895
H            9.63257208639713       13.64947183887067        0.12934060339997
H           11.24508733253418       12.98032110527486        0.15766800217987
C           11.04262854714851       14.67823013299141       -1.13614606122423
C           12.37582295775232       14.69708598766851       -1.57575006893457
C           12.89981648851069       15.86701843280659       -2.11225167681638
H           13.93587502487406       15.89354352599423       -2.42835643388339
C           12.12154031733365       17.01185366891863       -2.24776722018535
C           10.79336404460516       16.96720937609307       -1.84656596416986
H           10.18449429977355       17.85776400375342       -1.95436644259802
C           10.23662649705620       15.81164556884001       -1.30453885031086
C           13.25608413462700       13.46697975129885       -1.44363820115274
H           12.61610092401260       12.57604783645871       -1.48961442653094
C           13.97865545253189       13.47891192524492       -0.08853630626145
H           13.26169149016858       13.52366196094636        0.73166468851569
H           14.57717120191962       12.57443533870481        0.02329132204218
H           14.63564399139788       14.34653466124727       -0.01825353268134
C           14.27587014761656       13.34237466251804       -2.58081642222335
H           13.79115407005824       13.48989839802423       -3.54581415141861
H           15.08317457772866       14.06815406806064       -2.47976587969759
H           14.71511396912319       12.34476034022308       -2.56174771795815
C           12.69861468551410       18.28258226026174       -2.83239347595257
H           11.91564248374093       19.05337944654084       -2.82750398433222
C           13.87065617502726       18.79104589346712       -1.98370219673683
H           13.54708880519437       18.94150654044812       -0.95343685515551
H           14.69376271938522       18.07595314014322       -1.98812869519337
H           14.23407542280937       19.74028344342911       -2.37837149162210
C           13.13267700433288       18.05621303067336       -4.28642634613045
H           13.48978724308627       18.99037103982323       -4.72079695148079
H           13.93378203431335       17.31859723061369       -4.34213315523766
H           12.28850172341746       17.69658295053801       -4.87546260220463
C            8.78485373071847       15.83085551586308       -0.86573833406631
H            8.39063911247805       14.80560752580765       -0.88162352414430
C            8.68781737825092       16.35318490660178        0.57208617655766
H            9.27847698231395       15.72817936978804        1.24258682734248
H            9.05970945460409       17.37652019087070        0.62823429568209
H            7.65126680548358       16.33767138302573        0.90964107472621
C            7.89355022131413       16.64817727168513       -1.80617837610965
H            6.84787688176289       16.41758568766222       -1.60180556302986
H            8.03748708418045       17.71988007560340       -1.67123075161980
H            8.10594432422577       16.39234875800141       -2.84433611544138
C           10.36198181516301        4.40444753225875        0.01599401304578
H           10.37430952909419        4.62422368714009        1.08244421595490
H            9.51784092148220        3.75327980687702       -0.18089727526924
C           11.66632819697189        3.84760422673603       -0.48358199440992
C           11.69289626973745        2.78966703229940       -1.40838704433718
C           12.89975666285907        2.45378361300102       -2.01518162801200
H           12.93711062660083        1.64600539975007       -2.73606522431530
C           14.07398710150062        3.14482205481421       -1.73928850240982
C           14.05117872588929        4.12700233560918       -0.75635357145652
H           14.97102753389203        4.63308451357324       -0.49260576240877
C           12.86810285001823        4.48188548884562       -0.11810058089707
C           10.44606726600395        1.96415142317783       -1.68456608981507
H            9.58922938826084        2.63982399744147       -1.80984586034096
C           10.18043627883116        1.05241411052626       -0.47487037819340
H           10.13420789606260        1.63260765198537        0.44591507567588
H            9.23556822350013        0.52355554194940       -0.60230710774394
H           10.98242127002939        0.31998292665351       -0.37578730684548
C           10.51872086093664        1.10114962837396       -2.94771076721924
H           10.76981292535823        1.70221085069641       -3.82028310597775
H           11.25390258340308        0.30253919360447       -2.84561858178117
H            9.54521294059927        0.63991496665610       -3.11885178979172
C           15.31676558282380        2.84469521929499       -2.54929006938028
H           15.21377859175048        1.83702583205287       -2.97511192583611
C           15.39851931274741        3.84376379490261       -3.71398030027997
H           14.50208047490238        3.77497258577452       -4.33093688535961
H           15.47834388031054        4.86356021129802       -3.33674487796956
H           16.26877613824074        3.63155331268763       -4.33562827153406
C           16.60115650136111        2.87810616167853       -1.71547183829476
H           16.49599797956703        2.24403106606639       -0.83478492869291
H           17.43638154378073        2.50997533966527       -2.31208374774082
H           16.83621665173597        3.89208388902669       -1.39062334134414
C           12.89888390552719        5.49306583286718        1.01496093833560
H           11.96607946588252        6.07015373927011        0.99792851861607
C           14.04249714853958        6.50712437705954        0.93429788325366
H           14.06802262396906        6.98102860796489       -0.04659735620124
H           13.88489763060834        7.28316337037184        1.68423293257504
H           15.00989754339023        6.04257422130619        1.12502978744428
C           12.97240312163314        4.74124308579112        2.35201504380067
H           12.11280536055268        4.08198721890520        2.46945030576751
H           13.88040251154449        4.13924425446646        2.39992824235285
H           12.97769192202194        5.45026381726276        3.18042734820010
C            6.16278895839947        5.95723298675415       -4.81184555589375
H            6.00655385625611        6.97156522081231       -5.16693920643404
H            7.19147388427212        5.69796712312525       -5.04841637737293
C            5.20209713256563        4.99148380471231       -5.43885195209883
C            5.56332651092910        3.64172635289785       -5.57227317848152
C            4.70680626850040        2.76517974113332       -6.23303609379774
H            5.00479487306529        1.73214877145338       -6.37660393499737
C            3.47504869452061        3.18434217575395       -6.72062816313264
C            3.10344105067473        4.50941567634344       -6.52908004388762
H            2.13857234744147        4.84641958474637       -6.89145159317396
C            3.94636767074611        5.41980041800616       -5.89641376609567
C            6.87471235011637        3.09460018610143       -5.03639383010098
H            7.35847077492430        3.84397582729035       -4.39973180085128
C            7.82498157785764        2.77372215704215       -6.19695024441814
H            8.01528289182403        3.67309693554229       -6.78333807111018
H            8.77416163384446        2.39931988360510       -5.81245589060047
H            7.39298422279835        2.01739379872697       -6.85286824606884
C            6.64796742771290        1.85943792375142       -4.15707331914355
H            5.91556303574645        2.08356612417832       -3.38197374910140
H            6.28929339106146        1.01045510998383       -4.73856707788993
H            7.58415023557218        1.57429464466315       -3.67651625862115
C            2.56322953084425        2.21298063095721       -7.43754165685944
H            3.04961229643351        1.22802285637341       -7.45299077494511
C            1.22538980993450        2.07061438615286       -6.70081127615817
H            1.39673097478459        1.75108567726923       -5.67259053925575
H            0.68661213505497        3.01838936234630       -6.68381390141206
H            0.60248068184950        1.32627262990293       -7.19761010457941
C            2.34147511380436        2.65715431510239       -8.88917809628742
H            3.29966615221505        2.75188401784990       -9.40072721605748
H            1.73393518620883        1.92184400322976       -9.41740203088346
H            1.83152398186604        3.62029275083814       -8.92632850044746
C            3.45410482236876        6.84957356585667       -5.76051567085624
H            4.18132203179981        7.44961895767641       -5.20115135480593
C            3.29756894049860        7.48481986512712       -7.14716586203465
H            4.24356691024324        7.44009539258065       -7.68659069318870
H            2.54040919782896        6.96369061277709       -7.73317767102758
H            3.00081308227793        8.52898759610733       -7.05082524172812
C            2.13675670452241        6.91387719666072       -4.97793255714373
H            2.26508136725612        6.45993780537995       -3.99559037117703
H            1.84038311790181        7.95400190425453       -4.83955162808321
H            1.33522504739528        6.39261471762905       -5.50079451383787
C           12.54727965221796        7.05995663249407       -2.79667303525811
H           13.28632187987796        7.00706048089454       -2.00093715295934
H           11.87062138732055        6.22081363906977       -2.65391359220162
C           13.22129326756259        7.01494343128885       -4.13561271628895
C           14.47238132203067        7.62743991897607       -4.30585407990953
C           15.17037568044464        7.43485012413431       -5.49290893760743
H           16.15565382256520        7.87171835646205       -5.60754647653306
C           14.63768169809418        6.67666185591870       -6.52975004520733
C           13.36250837469385        6.14716453230293       -6.37977905223494
H           12.93557305546114        5.56592636377689       -7.18937710364656
C           12.63555354976415        6.32720645449457       -5.20627359952512
C           15.09088854266053        8.48120055901963       -3.21356730855024
H           14.30314471208918        8.79164981759112       -2.51675421429399
C           15.71247261522226        9.76582727278026       -3.77447184362091
H           15.98726590943013       10.42522209976598       -2.95037020106736
H           16.61064520249809        9.55990223120579       -4.35673287627848
H           14.99465013583553       10.28300205165387       -4.41134269176515
C           16.13759953065968        7.67405554815700       -2.43442998305681
H           15.67895177593984        6.78915078890107       -1.99245878413584
H           16.94239807161667        7.35208508743188       -3.09618443156626
H           16.56238044771966        8.28082369455514       -1.63421301431679
C           15.43082675337271        6.41360224275243       -7.79103975353070
H           14.77759719885569        5.90226961209895       -8.51134758085372
C           15.91757248127572        7.71786163507455       -8.43360419788566
H           15.07737133301652        8.39535136897749       -8.58828020819807
H           16.65175200991856        8.21740334886564       -7.80104658281599
H           16.37922771771967        7.50847118829702       -9.39896009688351
C           16.61288471883292        5.48611764555864       -7.47829871880003
H           16.24993810724497        4.55431036679068       -7.04338583843708
H           17.16331616525153        5.25568613330123       -8.39085598554807
H           17.29410055850111        5.95730940067497       -6.76893531832006
C           11.23967525941489        5.74644832693637       -5.10516374380585
H           10.70155443530121        6.25560459987245       -4.29572879176089
C           11.30412733679153        4.25589105825180       -4.76078717555084
H           11.85981810394735        4.10749154478629       -3.83533409027622
H           10.29557969472072        3.86351652828865       -4.62923828998434
H           11.79903203939628        3.69938402666591       -5.55703181334858
C           10.41756971384972        5.97505910424284       -6.37653600594679
H           10.46621360595493        7.02198723376016       -6.67470533170318
H           10.76793247871411        5.35751190678906       -7.20308959912384
H            9.37617939969786        5.71861121904728       -6.17805463572397
C            9.29197143740245        5.54393312006572        4.98919577597950
H            9.09856294389231        6.50962152001690        5.44884525246537
H            8.48850653068642        4.87280381567898        5.28684614925867
C           10.63244577598885        4.98954991587651        5.37870305059837
C           11.65595254106582        5.82806170787820        5.84206861752624
C           12.85359712394759        5.26285029564615        6.27669626760291
H           13.63621916899593        5.90399814185348        6.66639569381606
C           13.07303363919784        3.89341569921398        6.22516580791103
C           12.07624523654643        3.07987689523577        5.69790230678563
H           12.24499574639342        2.01144280226573        5.63148507312281
C           10.86892722376618        3.60934166164684        5.25679073447090
C           11.51383851178139        7.33682699546986        5.90316836880957
H           10.69258564586230        7.65020835089691        5.24640699334498
C           12.77400763175018        8.04681821153147        5.39422406043952
H           13.11461187466326        7.59069804071100        4.46465443621115
H           12.54638117574563        9.09416068976408        5.19662183667252
H           13.58324868707789        8.00390012836620        6.12261552574848
C           11.16999253632895        7.78552307261037        7.32682500114626
H           10.22912143242984        7.33613183514772        7.64415997041775
H           11.95209788996148        7.48418950806291        8.02422668077725
H           11.06989177952266        8.87024707121158        7.36139369637530
C           14.38269185986977        3.31046225562929        6.70720118747956
H           15.00618358848373        4.12906360726587        7.09194024814320
C           15.13328053921887        2.64690138062578        5.54523920635415
H           15.28658110210661        3.36771156516852        4.74142816126030
H           16.10557967955384        2.28755499011275        5.88317443672583
H           14.56859679178669        1.80204026532043        5.14995461030518
C           14.14715671543659        2.31470575877105        7.84964953458573
H           13.60810718861719        2.80183357957670        8.66284112923405
H           13.56137067229262        1.46098133339860        7.50771075070443
H           15.10118371565511        1.95026822101214        8.23139863335462
C            9.82999453144881        2.67503590267657        4.66316785979599
H            9.13090172042336        3.26586108787568        4.06033710968745
C           10.44980238956645        1.63700789707989        3.71945213174351
H           11.08231559929380        2.12997278603991        2.98072066355674
H           11.04936413218732        0.90433752445462        4.25934503574096
H            9.65589859800479        1.10419986538359        3.19506022822742
C            9.03797025960182        1.98014198809491        5.77829096919664
H            8.53517213801977        2.72004744808110        6.40164502580237
H            8.28413974312190        1.32007669937104        5.34804856441467
H            9.70350767058480        1.38972123394472        6.40879172499769
Au           7.13081590484823        9.86669175642434       -2.35770761036922
Au           6.00866128994869        8.76409713104180        0.09491889683468
Au           6.49190175875462       11.58270052926100       -0.30482407186019
Au           4.81079936425110        7.92437340152683       -2.47989111872385
Au           3.57148875074359       10.26393166514817        0.19638283031592
Au           4.66243749976969       11.57654722143920       -2.71271213388913
Au           7.98833894953210       12.83243795049064       -2.56914998985855
Au           6.88219769872410       13.23125351344231        1.98755710524283
Au           9.46331220400808        8.45173334152051       -3.50046835345573
S            7.43189622612570        8.90776259036255       -4.63005214168624
S            5.01646465242196        7.06796815247651        1.69365314861503
S            4.87633369255562       13.19167021932376        0.79094692976455
S            9.09934972345993       13.34110305214237        2.76724356946307
S            3.47901564363521       10.56551696219302        2.53165421137662
S            5.85280800477945       13.55400627033506       -3.22146721040646
S            3.38076444574468        9.72786090825745       -2.07852294417478
C            7.83554470188875       10.33793850239631       -5.67951890844502
H            8.08008256799423       11.19392054970681       -5.05705935082023
H            6.91890471384870       10.58240917209760       -6.21728585486598
C            8.94761377409882        9.99197344611825       -6.62729469818115
C            8.68196026634296        9.15554762797332       -7.72240703283812
C            9.69961808811902        8.86668082841496       -8.62572110958802
H            9.48158409438926        8.25357058265264       -9.49243820711433
C           10.98786970280281        9.35651123116171       -8.44372598917363
C           11.24740589738637       10.14980501825224       -7.33333429062947
H           12.25164280516551       10.53169289805233       -7.19016213794131
C           10.25043980801298       10.47043494508225       -6.41601649269750
C            7.29453550456626        8.59592909201567       -7.98536793085424
H            6.68620907166149        8.69061197473147       -7.07845246835204
C            6.62219287585812        9.40452958171134       -9.10301845373380
H            6.58350076054415       10.45947504451202       -8.82999468848207
H            5.60505067598521        9.04749297804134       -9.26700832999957
H            7.18090821074175        9.30915763717440      -10.03470337035613
C            7.31957893808502        7.10408338063214       -8.33741576246708
H            7.83510891203323        6.54490577647259       -7.55720103215947
H            7.81852983008011        6.91846396629852       -9.28825305896129
H            6.29815501157862        6.72859337817775       -8.40966731405465
C           12.08292995451969        9.07674758630646       -9.44939044988845
H           13.04062834913780        9.39231046301962       -9.01260352384073
C           12.18420769232472        7.58580306079304       -9.78836622243399
H           12.28735433775918        7.00256683290002       -8.87374438208838
H           13.05655534630339        7.40551917741476      -10.41718497078756
H           11.29858482588364        7.23983441172667      -10.32185323817317
C           11.84251240918466        9.90623905292856      -10.71821701998313
H           11.80576928474398       10.96700550756033      -10.46902795282006
H           10.89746950102142        9.62613508217381      -11.18493701828163
H           12.64844621870468        9.74179191682728      -11.43391513481748
C           10.58922463306954       11.37069096045649       -5.24161082371764
H            9.94074853018705       11.10953263298274       -4.39525957486214
C           10.32375184359513       12.83712518826461       -5.61122758560237
H            9.28214415672385       12.97939634907109       -5.90067106172978
H           10.95843395387577       13.13654817770911       -6.44582511298808
H           10.53999307007019       13.48042781344563       -4.75769118072227
C           12.02875804438985       11.20965928138268       -4.74444487145848
H           12.29490548090761       10.15570919263036       -4.67185486502307
H           12.10325038260119       11.64554333029055       -3.74749319953311
H           12.74180312556843       11.71303783716827       -5.39728230394085
C            4.52967587977061        5.71136632705286        0.58576889946423
H            5.33682306953909        5.48619233794869       -0.10609153531092
H            3.69677063501148        6.08920018865833       -0.00559663951362
C            4.12252994509093        4.51152071608577        1.39098812011419
C            2.87019113775809        4.50205309278477        2.02806037751549
C            2.47681098059534        3.37910683860936        2.74651229775602
H            1.50558964890317        3.36416065808108        3.22573415926672
C            3.30609313451151        2.26990272955552        2.86712705185328
C            4.55352862150786        2.30354919641230        2.25850513797979
H            5.20170108951813        1.44033838009065        2.35489518868188
C            4.98268394553356        3.41389345159015        1.53483602771151
C            1.93540929740595        5.69441872596026        1.93605630137716
H            2.54273107809189        6.60312104706997        1.83017513849548
C            1.02842799237476        5.56636217250320        0.70426569900775
H            1.62233175615617        5.50769646695248       -0.20793018341208
H            0.37062074617997        6.43302398481428        0.63285009808694
H            0.41775985372210        4.66571565370978        0.77600885055405
C            1.08005389850258        5.87034639258415        3.19523584259110
H            1.69640190292042        5.79165575911496        4.09058460926844
H            0.28527658178846        5.12598188686383        3.25004316431260
H            0.61642692248490        6.85606077522841        3.17822676202635
C            2.89219685471542        1.06907649769100        3.68941351901820
H            3.64121959851535        0.27775929714066        3.54849360205292
C            1.53069868701762        0.51806536494976        3.25073988553330
H            1.54812656336752        0.27732238078104        2.18759268807437
H            0.73680132686142        1.24374138368433        3.42884571791902
H            1.29998195729813       -0.38962610211592        3.80911904175993
C            2.87280724821670        1.44646564864196        5.17735309279363
H            2.62455054748233        0.57497796227193        5.78364767745481
H            2.13378451135085        2.22569940401048        5.36672945966099
H            3.85256475369914        1.81681517472321        5.48058620912130
C            6.36673382592551        3.39269947136686        0.91353123340356
H            6.74373247239628        4.42327145036214        0.85298841086981
C            6.31285254072996        2.82625290542295       -0.51006009699349
H            5.65845597966860        3.43190158446706       -1.13676507952343
H            5.93337989003466        1.80432544787984       -0.49746740468391
H            7.31058618785819        2.82568550482028       -0.95045735397674
C            7.36951919134535        2.61197102896149        1.76895256787836
H            8.38402085771945        2.87161962176570        1.46956035461914
H            7.24660511542270        1.53544510320868        1.65297167877157
H            7.24702397268373        2.86979119692107        2.82068692105138
C            4.66232220243181       14.76284049622961       -0.11328454601214
H            4.60674531104918       14.54988414691519       -1.17964245879997
H            5.52277718104954       15.40197015271896        0.05107053407957
C            3.38392641257396       15.32742339573388        0.44029844588712
C            3.40150205911211       16.37004603669594        1.38188965015467
C            2.21837742081950       16.71570699044233        2.02840071278962
H            2.21422462038123       17.51515985766293        2.75952198556837
C            1.02597998039610       16.04708889626537        1.77643386340931
C            1.00643291452505       15.07134204055496        0.78662895775990
H            0.07247443561810       14.57841031213584        0.54804134564224
C            2.16491654411357       14.70680065146568        0.11011728763124
C            4.67247755284931       17.16328314208798        1.64086447018401
H            5.51388567300673       16.46370730959308        1.73739635064954
C            4.93606470573008       18.08801372773129        0.44096537453071
H            4.96664914062298       17.52007959347363       -0.48790742286313
H            5.88853322310075       18.60384314735770        0.56547615689799
H            4.14206835462289       18.83128990151005        0.36042300352821
C            4.64975730305078       18.00740123924656        2.91824027727591
H            4.39870467595659       17.39991384651217        3.78609573064267
H            3.93600963368668       18.82818313540765        2.84359710171654
H            5.63972982374481       18.43701200060876        3.07725286153177
C           -0.19335648663589       16.36297631328821        2.61565895617795
H           -0.04565624171502       17.34867807451280        3.07815212781713