316
 energy: -506.640597847669 gnorm: 0.000560887903 xtb: 6.5.1 (579679a)
Au           6.78128500222908       17.15773034261368       17.31783698083290
Au           7.90873606124534       15.90150294175319       14.94410778030910
Au           9.48091325987696       13.95785940085496       16.74317523798258
Au           9.54108696985485       17.44760407356026       17.05952510489690
Au           5.31480248253832       16.90885042769763       14.84924780382186
Au           3.84517763957285       16.88762839868917       17.52877807498025
Au           7.59851142088436       18.60144274258636       14.98511885847577
Au           6.51192808972372       13.97613450213628       16.72216316258551
Au           4.97866441612255       19.27208807843054       16.71980488428251
Br           6.11787079790829       13.14258640568088       14.36214847347958
Br          12.02330189159535       17.22457915217910       16.55514659690697
P            8.75413078499997       14.55166122813863       13.11162639298170
P            3.27232933866086       17.21171685105566       13.62812268172665
P           10.38515310796184       12.78155522106131       14.84852545384346
P            1.86216249084721       16.44308326726181       16.18531370922686
P            7.85083222140341       20.91067238071667       14.52307154897394
P            5.14355898059004       21.47049992040741       15.80333880945833
C            7.60665374077858       14.53134056124737       11.69516598584185
C            7.17725310584874       13.38182490060632       11.03221698827733
H            7.56528443907773       12.41121879683709       11.31786051306151
C            6.24206797480147       13.46887983390242       10.01104602502462
H            5.91749125910094       12.56744303983580        9.50405003480086
C            5.71934528965366       14.70041606804252        9.64170424513109
H            4.98187881841474       14.76288977523836        8.85012313736944
C            6.14003243214751       15.85213469924490       10.29403318276103
H            5.73472494996997       16.81760986268937       10.01249463288209
C            7.07488814437847       15.76654360918527       11.31223148486249
H            7.39953490582214       16.66730837524173       11.82396457426035
C            9.33574769769951       12.79882517842868       13.33266808319727
H            9.85256106826893       12.43493693614340       12.44472750441653
H            8.46104693793916       12.17452570477806       13.51709589486352
C           10.22718858509175       15.33785116948022       12.36367109552114
C           10.63852423857404       15.08079376431090       11.05281595893223
H           10.07623423924341       14.38670599661239       10.43756154643648
C           11.75767951049463       15.71176629909707       10.53241334870927
H           12.06550647042792       15.50500507463095        9.51385327627427
C           12.48339762591519       16.60567554065396       11.30986137833308
H           13.35859405429744       17.09540218353284       10.89906394121189
C           12.08493738925523       16.86880765829014       12.61310520233065
H           12.64611741139338       17.55947329462470       13.23223566680989
C           10.96288273017829       16.24168809803967       13.13044041160865
H           10.65943492742546       16.44910716933507       14.15047940714460
C            2.72827542940961       15.94275746722457       12.44740161477852
C            3.42555399915144       14.73427617262362       12.40473948181023
H            4.26916454150022       14.57205237811093       13.06835412998834
C            3.04169226493615       13.73295419900148       11.52658002854472
H            3.58994355926200       12.79811983101080       11.50725269426163
C            1.96238844356145       13.93038239767238       10.67734608728735
H            1.66154926233650       13.14849033305022        9.98991132196923
C            1.26775919884058       15.13367559525206       10.70620925097006
H            0.42719532350162       15.29145204629739       10.04042295457951
C            1.64622356683724       16.13685699914608       11.58315109971259
H            1.10346395716106       17.07588567153695       11.59624837251830
C            3.41713330859094       18.73956204151584       12.64235587993281
C            4.67592130456906       19.02672423065212       12.10677971829982
H            5.48959433954715       18.32637921318781       12.26130623034834
C            4.89956075738020       20.19365653847998       11.39351057891660
H            5.88115256475797       20.39374615512530       10.97876729121367
C            3.86291786704999       21.10094693839403       11.21060330351489
H            4.03418937655191       22.01816080723328       10.65956592834413
C            2.60784056210225       20.82804885657173       11.73642187605946
H            1.79638963299279       21.53322369208776       11.59750635158127
C            2.38283687710744       19.65678852306071       12.44482115445382
H            1.39518474563696       19.46284556550640       12.84671492309057
C           10.69589494324682       11.02441651384659       15.22496972235022
C           10.23731278533977        9.95224675667946       14.45995974170524
H            9.67281358710873       10.13024510379584       13.55217926863944
C           10.50253763430262        8.64809084151989       14.85364116688241
H           10.14118703789165        7.82336067164946       14.25020756405111
C           11.22394174552619        8.39717051733902       16.01211239352494
H           11.42498300020418        7.37695901422777       16.31713014958426
C           11.68250659036994        9.45746092348097       16.78365255284439
H           12.24205729338655        9.27001534681976       17.69345589251774
C           11.41760960587891       10.75889676440324       16.39346038542826
H           11.77239773140381       11.58681138522536       16.99972560686014
C            1.77853384994324       17.53067342552710       14.67993416415995
H            0.84979843751857       17.38504437278405       14.12609590356556
H            1.82037460249602       18.56703782774450       15.01768005512799
C           12.03357708001239       13.33486132672417       14.30662483202824
C           12.57468589066412       13.01699448581146       13.05746398897795
H           12.00910941864485       12.41831582656043       12.35254675179108
C           13.83599972297477       13.46937537282328       12.70522744351093
H           14.23844820025220       13.22478687685643       11.72898292124810
C           14.58168205432669       14.23307700186048       13.59423316260568
H           15.56514287646835       14.58945460135372       13.31106658784600
C           14.06339672303189       14.53690797254163       14.84447447652292
H           14.63640878230350       15.13235980318674       15.54620928010018
C           12.80054757230416       14.08853288465392       15.19649614366746
H           12.39552615653350       14.34245195517630       16.16889268582469
C            8.71080137256928       21.19405626233793       12.94668282564580
C            9.62837094118110       20.21392957742919       12.55541805829361
H            9.78800698786747       19.34947025533053       13.19204391031743
C           10.32722288200311       20.33049462738919       11.36573367468477
H           11.03387639845179       19.55988244460145       11.07872978351016
C           10.11361629491894       21.42902324292488       10.54381156469124
H           10.65459907618969       21.52197190436495        9.60949843477878
C            9.20186088202175       22.40681869454350       10.91856052395477
H            9.03114876700985       23.26407712364800       10.27762047802779
C            8.50413652737348       22.29465558835866       12.11178830470887
H            7.79465101253686       23.06589723823763       12.38955679543215
C            1.67567103120268       14.78003376218525       15.47543449593031
C            2.70745026248186       13.85616182513910       15.64011745694753
H            3.58439057297905       14.13198403882610       16.21413084496005
C            2.62645639762089       12.59518326741057       15.07081143965507
H            3.44640067191196       11.89749339873321       15.19665860894442
C            1.50752026213571       12.24097912124049       14.33135422351394
H            1.44257642110186       11.25742205889326       13.88091857465996
C            0.46820771768536       13.14899767813580       14.16837364882277
H           -0.40800842945373       12.87345843390831       13.59290665782451
C            0.54739387128660       14.40994489644957       14.73614788915685
H           -0.26784868150390       15.11331561383402       14.60568868065156
C            3.52967593343301       22.12541208658693       15.27992248346286
C            3.35368268779048       23.14097796558315       14.33673213573309
H            4.21317981582445       23.61423893380088       13.87628215290950
C            2.07816184360724       23.54661249367857       13.97285948808741
H            1.95642574748153       24.33549635384075       13.23969806718110
C            0.96231447391592       22.94690597377693       14.54089560687765
H           -0.03190093296663       23.26567558270310       14.25111298937773
C            1.12373579608825       21.93411658245170       15.47710598828680
H            0.25755608514911       21.45757908157010       15.92180441725495
C            2.39689825977934       21.52640581622668       15.83910533290382
H            2.52336890658208       20.72559098812041       16.56066719097022
C            0.28306483165799       16.74257227596420       17.03382512936468
C           -0.21535490648136       15.74676834473594       17.88095882898255
H            0.29156600580310       14.78983998447429       17.93745429993695
C           -1.34413045559205       15.97673810924139       18.65088351765463
H           -1.72330205441719       15.19336844680687       19.29680308116916
C           -1.98726957700931       17.20683952825706       18.59454859734935
H           -2.87039399666732       17.38677906415414       19.19616141668298
C           -1.49240439636373       18.20736481229523       17.76913977922000
H           -1.98691376943031       19.17108908081411       17.72573842653322
C           -0.36125275167560       17.98207309105242       16.99992569981986
H            0.01862675442167       18.77773735931298       16.36814092240454
C            5.77172074589533       22.64153496887839       17.04547876836608
C            6.45045833236482       22.12551912199161       18.15160560284639
H            6.56878520036177       21.05204886327111       18.25100556382937
C            6.97806889888079       22.96718832975408       19.11669319755664
H            7.50375631649242       22.54829243807143       19.96700802518841
C            6.82861864770627       24.34147524587394       18.99095556976352
H            7.23864171901800       25.00315908621131       19.74476379032815
C            6.14716131384553       24.86735060606877       17.90083609630342
H            6.02436586226650       25.93974309607240       17.80360353719868
C            5.62076899786436       24.02598803114343       16.93316216599146
H            5.08618588482961       24.44603943914161       16.08851455106962
C            8.76715788615616       21.90834817355869       15.73953790539764
C            8.92161738341020       23.29255748263669       15.61794788103879
H            8.49729319653878       23.81466988383748       14.76740398112141
C            9.61653186498741       24.00522945598942       16.58163945443055
H            9.72521831706747       25.07879172566644       16.47945320954593
C           10.17350517282159       23.35069774203255       17.67341516404649
H           10.71496079392607       23.91401856193699       18.42429906800293
C           10.03745089231204       21.97557625070363       17.79779212253552
H           10.47147112829860       21.45485347468336       18.64378064001433
C            9.33907776952331       21.26292638988932       16.83649758464514
H            9.23046138365582       20.18942710293715       16.93863088847831
C            6.23992046301431       21.80831297555475       14.34297720932248
H            6.38805755632854       22.88167387839048       14.21689602362773
H            5.74385970477809       21.42402803810483       13.44932556470855
Au           8.07331791380431       15.07688885662274       18.83407052958038
Au           6.94651765801890       16.33251792290430       21.20809109375524
Au           5.37425943855370       18.27644813867931       19.40967704290322
Au           5.31335199772269       14.78665864312497       19.09314487104157
Au           9.53998050772244       15.32544595751754       21.30340527727639
Au          11.00941027326407       15.34645236942003       18.62390415779407
Au           7.25625141584405       13.63319888838690       21.16755478265473
Au           8.34249473415784       18.25788760501094       19.43131745264727
Au           9.87666552491380       12.96161957707419       19.43289203198190
Br           8.73706103179241       19.09083147381153       21.79022576371765
Br           2.83181265469830       15.00980940426822       19.59728665561567
P            6.10058724783503       17.68249280433450       23.04101652887819
P           11.58239062725134       15.02237063934058       22.52448684371264
P            4.46969334896832       19.45271727957085       21.30407790786799
P           12.99258652147826       15.79107411530126       19.96733422052495
P            7.00389561589541       11.32342449513343       21.62937466898872
P            9.71115768160012       10.76361174494941       20.34911008697628
C            7.24806056321199       17.70275782758519       24.45748461201089
C            7.67752807106974       18.85225576838687       25.12041946710391
H            7.28955679541351       19.82288109576107       24.83476123576673
C            8.61272012331627       18.76515990920589       26.14158016980215
H            8.93735206363510       19.66658437412820       26.64856242121267
C            9.13538501146777       17.53359971412267       26.51092443850868
H            9.87285901487058       17.47109365541560       27.30249588579471
C            8.71462733057974       16.38189832554254       25.85861257708904
H            9.11988626858230       15.41640373837773       26.14015441361371
C            7.77976162135720       16.46753039394145       24.84042762239471
H            7.45506328083564       15.56677840005060       24.32870648555587
C            5.51910284293219       19.43536684620965       22.81992450593096
H            5.00229626483170       19.79934853116778       23.70782868601653
H            6.39386918834215       20.05957302534622       22.63550083021725
C            4.62745357478568       16.89644316006636       23.78897508243416
C            4.21609367952294       17.15363248004202       25.09979413604749
H            4.77839974766107       17.84774778545867       25.71500303526987
C            3.09689646823934       16.52275219243305       25.62021534262506
H            2.78904510224093       16.72961902179655       26.63874560986520
C            2.37116619100898       15.62880157046017       24.84282450595980
H            1.49593562333207       15.13914926997781       25.25363459689134
C            2.76965546644948       15.36553173337060       23.53962037051876
H            2.20847409508024       14.67483012266085       22.92053095070488
C            3.89174181324040       15.99256679784429       23.02226564685112
H            4.19519811484778       15.78504136688991       22.00225181451943
C           12.12654987272907       16.29120240094653       23.70530215319874
C           11.42936015219887       17.49973233412584       23.74805437524481
H           10.58576028564985       17.66207037335544       23.08445078917133
C           11.81329437973079       18.50095818540746       24.62629135926283
H           11.26511195210226       19.43583133704524       24.64568908644481
C           12.89258299681330       18.30338801592166       25.47551194687097
H           13.19347870411405       19.08520700325763       26.16300530773252
C           13.58712439650365       17.10004632005773       25.44655900260424
H           14.42767554809698       16.94215912016573       26.11233561939644
C           13.20858799224783       16.09695892416124       24.56954031079046
H           13.75128063401843       15.15789204956723       24.55637551444194
C           11.43753981392570       13.49445276451776       23.51014074051189
C           10.17875704710331       13.20732723336466       24.04574835104913
H            9.36512433768572       13.90774082828796       23.89132110049415
C            9.95507047445438       12.04034837107256       24.75892633724651
H            8.97348164424663       11.84028645956788       25.17368977426777
C           10.99166012964191       11.13297193883456       24.94171202017673
H           10.82034909280243       10.21571951657982       25.49267327746195
C           12.24673407540787       11.40583385768897       24.41586717940326
H           13.05814387094131       10.70059251827195       24.55468810889401
C           12.47178474378914       12.57714017575758       23.70755750947272
H           13.45943561894066       12.77105155314893       23.30564522672610
C            4.15904147977790       21.20986277425139       20.92762427542577
C            4.61769981795571       22.28201221399521       21.69261351144353
H            5.18222901879387       22.10399128894845       22.60037142584402
C            4.35251103992819       23.58617549833725       21.29893679217546
H            4.71391774343407       24.41089284858457       21.90235376208869
C            3.63107243058081       23.83711764474173       20.14049101064154
H            3.43005767640575       24.85733521420614       19.83547845434967
C            3.17244205263265       22.77684308849941       19.36896717328958
H            2.61286766192056       22.96430478553045       18.45918222574458
C            3.43730234233512       21.47539998669763       19.75915448351538
H            3.08246178784585       20.64749446350553       19.15290654913608
C           13.07617437271012       14.70339605766667       21.47265315663276
H           14.00492442793698       14.84894538652797       22.02648919369002
H           13.03429435994638       13.66705370448259       21.13484238786881
C            2.82125541095963       18.89946794461793       21.84597989762248
C            2.28015073823358       19.21743244612336       23.09511507456062
H            2.84574516289276       19.81613647527318       23.79999691537928
C            1.01881807578476       18.76512125940058       23.44736638907369
H            0.61636926169089       19.00978994335432       24.42358996489962
C            0.27311690202786       18.00138985105439       22.55840150934789
H           -0.71035886076590       17.64506614921376       22.84158094463304
C            0.79140164185810       17.69745976468988       21.30818475308572
H            0.21837614994583       17.10198595672213       20.60647957504236
C            2.05426805271620       18.14576709482482       20.95614776240893
H            2.45928131417636       17.89176966517832       19.98376940595543
C            6.14390476449107       11.03993924520195       23.20573282626907
C            5.22632339284128       12.02003754389346       23.59704184239161
H            5.06669467205184       12.88453644643183       22.96046757724040
C            4.52745439624975       11.90339758592603       24.78670769351753
H            3.82079348532322       12.67398910183491       25.07374763540654
C            4.74105638233828       10.80482103824732       25.60856662344421
H            4.20006151965143       10.71181458679654       26.54286668197921
C            5.65282452851116        9.82705438664390       25.23377364014246
H            5.82353408236520        8.96976000869214       25.87466575136642
C            6.35056706930195        9.93929324202350       24.04056409910680
H            7.06006365201592        9.16807468689724       23.76276016920076
C           13.17913918620181       17.45408399981329       20.67729030596594
C           12.14742907710155       18.37802881671159       20.51258419099713
H           11.27051269524238       18.10229095186424       19.93849765787012
C           12.22845826046775       19.63897224049663       21.08196251933729
H           11.40856141275560       20.33671594161241       20.95610241093981
C           13.34736857794906       19.99307072428376       21.82150905047079
H           13.41234181263822       20.97659957465754       22.27200182455281
C           14.38661720411863       19.08498163938364       21.98450790215937
H           15.26281069128912       19.36043710690545       22.56004911919414
C           14.30739138426310       17.82406788862021       21.41666606587716
H           15.12258109038992       17.12063978417300       21.54714569903642
C           11.32502385564798       10.10862589107025       20.87246302964757
C           11.50097046962440        9.09293530715697       21.81552774091823
H           10.64145062279158        8.61964673438528       22.27590696668640
C           12.77647034116776        8.68721039338438       22.17936712405114
H           12.89816776533673        7.89822843337356       22.91242971577221
C           13.89234438861671        9.28694782982751       21.61141658342247
H           14.88654438614038        8.96809824896997       21.90116633482459
C           13.73096880173383       10.29986647203876       20.67533526865419
H           14.59717438036226       10.77642214079358       20.23070668114961
C           12.45782298939073       10.70767795981073       20.31337434203832
H           12.33138162999326       11.50859416180919       19.59191696961240
C           14.57167448675861       15.49158183054490       19.11880063259805
C           15.07015791389739       16.48742758720822       18.27175361421145
H           14.56329256766789       17.44438956424724       18.21533358033540
C           16.19893450644605       16.25746286606658       17.50182786560147
H           16.57815891638053       17.04086598890794       16.85597963755594
C           16.84200939948861       15.02732364444931       17.55807139367958
H           17.72513461127427       14.84738780931292       16.95645840083113
C           16.34707765602857       14.02675578786565       18.38338856899127
H           16.84153472085520       13.06300138951574       18.42671681394901
C           15.21592651141507       14.25204432880668       19.15260436894856
H           14.83599553365409       13.45634767420170       19.78431696210485
C            9.08297491735322        9.59273090926936       19.10683607478875
C            8.40426197220579       10.10887840622357       18.00075563430987
H            8.28596286126054       11.18236116137137       17.90146471118956
C            7.87663473073264        9.26732607567616       17.03557500553317
H            7.35095934240819        9.68632676430775       16.18530411667669
C            8.02604323648311        7.89302167520633       17.16117179303033
H            7.61600387761769        7.23142625401511       16.40729459656793
C            8.70747720373773        7.36701558995333       18.25124264402982
H            8.83023461892301        6.29460932947596       18.34836971333053
C            9.23388834553683        8.20826218371962       19.21900652537790
H            9.76845510792306        7.78810700868417       20.06361266776331
C            6.08755930998418       10.32584013294340       20.41283509266128
C            5.93311343993812        8.94161864746369       20.53430442426590
H            6.35746069912847        8.41943201628488       21.38479102162737
C            5.23818483376546        8.22902605980932       19.57056358294734
H            5.12951180881095        7.15545373815425       19.67265464557306
C            4.68118012553446        8.88364722669133       18.47885773882137
H            4.13971655152305        8.32038918781186       17.72793279215217
C            4.81721545627831       10.25877934086773       18.35460280274938
H            4.38316997421673       10.77957599289423       17.50867268118290
C            5.51560352369186       10.97134721567943       19.31594382124953
H            5.62420262754080       12.04485411244276       19.21389358559664
C            8.61477670031984       10.42571935172847       21.80943607764272
H            8.46661683270661        9.35235242665434       21.93542732446036
H            9.11084169421397       10.80991727759236       22.70312381910902
