270
 energy: -385.182119756610 gnorm: 0.000465672793 xtb: 6.5.1 (579679a)
Au           6.67984227955612        2.49256412929396        2.96847263429285
Au           4.02204518076546        3.04340815314537        1.68504839424977
Au           8.63629626457072        5.52182777343515        4.15400949395996
Au           5.92424285571597        4.57484640778690        4.89087242271905
Au           5.61480419368620        6.13441306739583        2.65902893891429
Au           3.37335368165332        5.03835948226514        3.80939966538398
Au           3.03079318401308        6.63895866450717        1.11725227744642
Au           6.73389619020574        5.48359595961119        8.04957908629743
Au           6.12852577297724        7.76799830484221        5.20367010779023
Au           4.10726482797089        6.17177038046578        6.47728741052952
Au           3.48047773253276        7.97590718311192        4.28111883064045
Au           0.61907324721867        7.09878218733503        5.14330838658090
Au           6.45663557598361        9.18891025450038        2.44870407118330
Au           4.98734104446800        8.50141242891206        8.00903824887365
Au           2.66636361526289        7.26694709996043        9.51077751147027
Au           2.53032948991655        8.82955142144391        6.91027340011653
Au           4.73743649147846       10.22645546632347        5.71719136611448
Au           3.28311993536923       10.72677694996564        9.06441091789407
C            4.81192017781840       -0.17817631130768        2.26751347171509
H            3.86428412455866       -0.71244915656290        2.39734859500384
C            5.05662984671460        0.05089273393229        0.77996644176189
H            5.96577285820476        0.64724550158033        0.64939775638485
H            4.22297801914287        0.61680427569393        0.35514059358998
C            5.19938528666540       -1.28234997806325        0.04202890215454
H            4.25858104293090       -1.83877266734730        0.10973851337208
H            5.40108684702432       -1.09041301824826       -1.01566738391357
C            6.33329841372413       -2.11325726125815        0.64512408881040
H            6.39774244852288       -3.07605536159629        0.13027250144330
H            7.28547533697263       -1.59064903313174        0.50382258200995
C            6.09136625250444       -2.34218144937603        2.13812777161240
H            6.92792690320172       -2.90010859332436        2.56840930282854
H            5.18289762017832       -2.93783116815923        2.27700856658972
C            5.94320958314376       -1.00696182738982        2.87126324767499
H            5.74157535171624       -1.18664648358447        3.93010499653834
H            6.87794323931295       -0.44028826647207        2.80132350072607
C            9.69611270689694        2.49648608665352        4.15277961820202
H            9.12739129356305        2.51238979200304        5.08942432022003
C            9.80851193635853        1.06414945315292        3.64128962766109
H            8.80578628082171        0.64928348569246        3.50415324534906
H           10.30600303264531        1.06382195130591        2.66622374925299
C           10.59112129536394        0.19890909045264        4.63204397738983
H           10.03738111038515        0.13477757862744        5.57506984657934
H           10.68943923494437       -0.81415063727594        4.23153103047410
C           11.97679048804843        0.79237716258369        4.89221806777474
H           12.50282878328794        0.18505374176663        5.63443149259506
H           12.56234706762609        0.77554145886285        3.96677067635776
C           11.85760439302569        2.23178666474623        5.39653772835801
H           12.85444782065559        2.65711497507546        5.54318948391621
H           11.34145310239913        2.24136888431461        6.36257794625462
C           11.07937302243148        3.09089810405477        4.39711085547995
H           10.97192280817223        4.10568662065619        4.79059508436014
H           11.62350405306702        3.15548152203663        3.44947938957683
C            4.82541374227587        4.84018491453137       -0.93922976908553
H            5.64833137777175        5.08851470198324       -0.26215237632320
C            4.60214404625705        6.00624983640164       -1.89613306758729
H            4.41485042418725        6.91312263011838       -1.31379604290273
H            3.71902248304338        5.81188425210750       -2.51228749443795
C            5.83153249913900        6.21730798968174       -2.78190913150130
H            5.63546842197558        7.02929757044575       -3.48785530788907
H            6.67806049010438        6.51695144219901       -2.15441495978575
C            6.17828859803652        4.93897891027375       -3.54687768045341
H            7.08620321985289        5.09869953512672       -4.13571529357251
H            5.36576354503368        4.69693950874520       -4.24036612620659
C            6.39178918187976        3.76913972331003       -2.58436086015099
H            6.59023172861194        2.85479052922351       -3.15098295776887
H            7.26400972788492        3.96680240048862       -1.95243699308871
C            5.16036968446575        3.56095571924247       -1.69917094061331
H            5.35292948843587        2.75627615053518       -0.98341113872666
H            4.30250181445156        3.26612289517388       -2.31169365311988
C            8.41371044488694        6.97474731700744        0.96097087573933
H            8.69907037202510        6.82246444184487        2.00918704908217
C            8.60341733381351        5.66722921769932        0.20040942765598
H            8.00640474743615        4.88261014339218        0.67353324601278
H            8.24233220263911        5.79470360413515       -0.82437123026289
C           10.07621338957784        5.25269057507984        0.17917480084736
H           10.40478823651119        5.03199855816518        1.20031789654677
H           10.18517841182839        4.33750443865476       -0.40985850594491
C           10.94072981153904        6.36338226703774       -0.41796481682631
H           10.66686792977991        6.51756835135609       -1.46720872252975
H           11.99352544651314        6.06838924934663       -0.38481050785506
C           10.74833822661086        7.66690914720672        0.35866881767834
H           11.09279330397542        7.52878475906356        1.38920666146674
H           11.34864200413611        8.46192343648834       -0.09260135141393
C            9.27490041162100        8.08369145589514        0.36806939078931
H            9.15058306620390        8.99392813958195        0.96172810272964
H            8.93839825226810        8.29877117706599       -0.65100982861897
C            6.46232334018576        2.11992962911290        7.32043453682698
H            6.76344986649450        1.98209944335429        8.36378663796006
C            4.94236938643539        2.19798324609601        7.23976551599621
H            4.64660258200133        2.43553778157594        6.21191245429511
H            4.57827412620570        3.00340733393875        7.88492522991240
C            4.31215644627541        0.86684069769894        7.65522796437146
H            4.55081647267397        0.65768740666200        8.70339926664332
H            3.22473538450379        0.93430821294988        7.56643455346928
C            4.82869105955700       -0.26625369855967        6.76912630620498
H            4.54757783238762       -0.06918031553837        5.72788652735543
H            4.37193640710621       -1.21312739570942        7.07085457571569
C            6.35040980949764       -0.36524447264947        6.87976501688385
H            6.62966799463912       -0.61808861138086        7.90817928312988
H            6.72287728063073       -1.15946910162341        6.22593841578433
C            6.99992523200813        0.96159618225285        6.48288180333740
H            6.79877293941644        1.16352541931772        5.42543083823089
H            8.08422461771119        0.89910861496940        6.60924809598408
C            0.22902081634624        4.97362713244092        2.56980129281894
H            0.82835924927303        5.64121154114403        1.93775847923341
C           -1.21119644577071        5.47009765674214        2.58180582498410
H           -1.24250302322703        6.49039314731840        2.97459009539290
H           -1.81222462133308        4.83764033945747        3.24253935055037
C           -1.78120258699045        5.44610276416240        1.16030011120854
H           -2.82228625203165        5.78056763820845        1.17911890546218
H           -1.21503319329331        6.14315273157586        0.53300518261846
C           -1.69821630640912        4.04128240719653        0.55964027912164
H           -2.06569845207955        4.06161963570435       -0.47040674711374
H           -2.33763427191739        3.36047824015443        1.13169337548904
C           -0.25758794550588        3.52662234198832        0.58244850236381
H           -0.22314528812362        2.50281082517439        0.19931752311937
H            0.37282948527381        4.14807045056213       -0.06347830002461
C            0.29667282352984        3.55858469286473        2.00745106172933
H            1.33602289310038        3.21722518239854        2.00506430024164
H           -0.27276936585652        2.88323912815651        2.65353227817551
C            0.95889357963994        9.04426294762455        2.15559246568056
H            0.51647044655830        8.24598452056378        2.76262456905791
C            0.72255685287904       10.38407132840267        2.84413350760323
H            1.21303930307204       11.17534746748646        2.27041610022353
H            1.16440958049106       10.36516966899376        3.84392767995225
C           -0.77544578949672       10.67625599417321        2.95080189246604
H           -1.24540973348759        9.92363897447853        3.59297877888362
H           -0.92120647343284       11.65338283511749        3.41999711393122
C           -1.42557377009489       10.66139244206747        1.56670593760531
H           -1.01160231595818       11.47339363091720        0.95925035239052
H           -2.50228317174484       10.82873609434787        1.66305027299456
C           -1.17564748099691        9.32261303846338        0.86997301913511
H           -1.61098685279132        9.33813319721584       -0.13326208146524
H           -1.66408480479772        8.52198561494326        1.43589011356114
C            0.32442075246419        9.02996201262371        0.76977436419636
H            0.48019361724201        8.04999971894136        0.30911878419369
H            0.81292232729120        9.77882027672184        0.13847934252634
C            9.34008653977101        8.75470236124458        4.66051518324443
H            8.82634763975986        8.88757322338068        3.70130959605868
C           10.81152532292347        8.45542321528144        4.40287183424595
H           10.89897222911399        7.55445236444519        3.78859547968792
H           11.31673598455360        8.26206647700303        5.35465210537617
C           11.46943587617351        9.63916856231742        3.68727763884032
H           12.53046329275866        9.42558649277470        3.52974396184542
H           11.00365478256686        9.77198419279933        2.70474808492075
C           11.31357616248122       10.92535064482509        4.50134618513381
H           11.75393703373849       11.76211985095748        3.95142314489623
H           11.85212653200747       10.82516621356785        5.44998569356721
C            9.83764571187332       11.21175617886668        4.78151841256418
H            9.30614939669056       11.40562834583987        3.84354425116042
H            9.74474123478999       12.10344973803641        5.40833716810179
C            9.18690095990298       10.02334915552010        5.49043937779970
H            8.12539457261875       10.22650358926165        5.64796909009750
H            9.65074564855991        9.87384036069059        6.47001760655010
C            1.32451678632556        4.66015154472519        7.93990860417369
H            0.91343893303846        5.41619419933245        7.26087688781921
C            1.46134808968765        3.33344908582384        7.20148465440420
H            2.10548509331044        3.46484697197278        6.32840931500984
H            1.93505412925962        2.60774954776236        7.86866882055088
C            0.09351783455413        2.80959925383049        6.75755331577211
H           -0.33358154504975        3.49841491181000        6.02083439935016
H            0.22104270280992        1.83862421428955        6.27029435993230
C           -0.84983917543817        2.67151486018289        7.95278533415942
H           -1.83680993596761        2.35072221124447        7.60703262549964
H           -0.46725934086120        1.90571238173035        8.63620582472918
C           -0.97405120711265        4.00249722235843        8.69641294233745
H           -1.61916515270197        3.88151484736963        9.57135135455199
H           -1.43548952027762        4.74735643290711        8.03885811254384
C            0.40234543883625        4.50227405592220        9.14394929389765
H            0.84729063131585        3.79445075383156        9.85037264027031
H            0.30106775270453        5.46300063423124        9.65603291379416
C           -0.85839777581482        9.20658325247768        7.44122865861882
H           -1.86340768030093        9.31855003083117        7.01989916684072
C           -0.55167822960564       10.40648142069225        8.33409297440179
H           -0.65535386530533       11.32765622530261        7.75473331142703
H            0.48881731661653       10.34180061551251        8.67070945765409
C           -1.47621860466431       10.44011545069239        9.55235261306220
H           -2.51151124307766       10.58270068188498        9.22486651634115
H           -1.20486478417202       11.28751020428388       10.18837870135416
C           -1.35959103199379        9.13726721710075       10.34440963096043
H           -0.33590550735302        9.03242232225078       10.72297234973688
H           -2.03664965014253        9.16289873253138       11.20298132721330
C           -1.70321780975538        7.94336194960921        9.45247853336715
H           -2.74664874775258        8.01384138295479        9.12744446461219
H           -1.59012539952636        7.01330084308194       10.01707171155934
C           -0.78851691100690        7.90466983415061        8.22722886062462
H            0.24515309169599        7.73954439252682        8.55175499708058
H           -1.06648296205272        7.06996281168716        7.57718985525572
C            5.49441094301179       12.34400936037116        3.03977208587210
H            6.15786131070344       12.64927947116538        2.22374508775812
C            4.15639578991808       11.89665163660441        2.46454720083464
H            3.51718578005837       11.53941864311551        3.27890202701334
H            4.30386367040856       11.05829936706715        1.77684833462498
C            3.47413294054371       13.05659097959860        1.73713284816256
H            4.09004606354484       13.36755762786676        0.88646355790538
H            2.50749950057175       12.72516814057197        1.34651483672412
C            3.27151366004099       14.23832336615040        2.68735050386486
H            2.59255506330236       13.94464987777052        3.49520839017393
H            2.81226437807925       15.07165956575662        2.14764814325087
C            4.61010786272788       14.68328328931603        3.28060660197450
H            5.26064163455555       15.05655147428141        2.48226159316598
H            4.44770400968223       15.49930178226329        3.99079341479454
C            5.29466556902987       13.51594238580005        3.99692730434609
H            4.67504806744523       13.19034621273837        4.83815267909635
H            6.26219781472035       13.83459725385598        4.39471499589739
C            8.28141402442519        8.20029933918317        8.97596053774143
H            8.21985344156430        8.58932517224003        7.95560847106953
C            8.52545987757140        9.34747933459380        9.95137809704547
H            8.51784410897875        8.95786906653017       10.97418679779688
H            7.71642813792514       10.07814617422495        9.86542893735509
C            9.86941127124815       10.02233193864213        9.66541633083079
H            9.84546214991904       10.47446096466872        8.66804524010502
H           10.03711809759770       10.82271372434745       10.39195450048444
C           11.01123433762305        9.00748223723796        9.73510435397347
H           11.09263646033838        8.61722860156975       10.75526598905851
H           11.95613466848603        9.49967322024728        9.48672042917045
C           10.76205422003503        7.85275621072967        8.76413002987770
H           10.76780612256620        8.22823504232471        7.73475556692111
H           11.56208664671494        7.11229246818430        8.85415715118481
C            9.41555889118130        7.18294378159667        9.04565334649450
H            9.42642891766325        6.70815859269730       10.03123466331975
H            9.23962791393229        6.40558182469545        8.29677040790028
C            3.51442832009726        9.21354699804789       12.08554817714174
H            3.08164701267444        9.88884269755720       12.83205218760775
C            4.92408036823733        9.69369285735972       11.72883666459266
H            5.16365964272547        9.39730132678882       10.70593735380840
H            4.95050660528267       10.78673527308568       11.76997090106229
C            5.98865567588772        9.09533142269136       12.65959982380191
H            6.83765177353495        9.78112961770687       12.72449924568253
H            6.35350063647053        8.15530064891960       12.23121363850763
C            5.42193069535924        8.83917308169182       14.05509953630483
H            6.21962062713090        8.49703373882137       14.72007236474480
H            5.03224153040716        9.77809963292267       14.46212894353745
C            4.30506773658884        7.78616404207081       14.00781448803077
H            3.59903440706413        7.97322424560873       14.82217778985800
H            4.72768306905748        6.78874970487291       14.15984269898350
C            3.55931777281694        7.80348366433063       12.66494912355979
H            4.06178549266113        7.14595436549635       11.94789687908528
H            2.54347213020082        7.42646059686712       12.80209751119533
C            5.40970358974754       12.99508771691606        7.83223438885544
H            5.46335740874634       13.87207061104117        7.17664945282333
C            6.67955615348409       12.17013697534004        7.64831550967471
H            6.77028163956674       11.87264977639996        6.60135187895416
H            6.61238658603624       11.25800852171306        8.25059534687352
C            7.91084001150966       12.98045776939854        8.05592987219929
H            8.80659861202971       12.36418759224103        7.93777184124468
H            8.01145741444540       13.84666885453049        7.39330757689637
C            7.79037732887186       13.45145990709699        9.50583760187034
H            8.66246748156259       14.05558914192697        9.77201973893402
H            7.76681956545776       12.58241023949458       10.17246117104369
C            6.51461553326267       14.27438369543216        9.69428558307560
H            6.57213667741707       15.18566598719900        9.08958745209143
H            6.41632495112849       14.57229335950255       10.74215439124179
C            5.28382298901060       13.46402560084258        9.27916195328922
H            5.18386043595001       12.58903255735218        9.93112943225091
H            4.38118704335108       14.06970302002764        9.39305349412706
S            4.61904153594713        1.34870221424489        3.21809667456544
S            8.82474567333201        3.50439666261500        2.92383664096827
S            3.31593453588922        4.56707494786019        0.02591265593144
S            6.66668410422237        7.44390970706323        0.87780954584733
S            7.28786660690333        3.61848321020861        6.73228926251259
S            0.93442723812729        4.95128868858077        4.23424125902179
S            2.74524115969688        8.77580492727498        2.03007860823426
S            8.56437449735553        7.39074554593855        5.56323990688339
S            2.97083868159756        5.17702803991568        8.49033203375189
S            0.26568351373528        9.25398095462007        6.02717709107840
S            6.35614329176876       11.02225351427560        3.92114211124935
S            6.70162184758027        7.42062888263178        9.41396039941984
S            2.35191368342281        9.29030890434366       10.70029714775315
S            3.91766295722639       12.12776680319887        7.29864783590445
