280
 energy: -462.279249808484 gnorm: 0.000484626151 xtb: 6.5.1 (579679a)
Au          10.00428475722513       17.79151458701960       15.42822388514152
Au          13.24823875851580       18.10701948897477       14.32644863293724
Au           6.91170363046311       18.05492338020644       16.22071525736490
Au          10.15621330261242       15.96870733489688       13.20926077314496
Au          12.01300053626981       18.27630133197376       17.26637722462942
Au          14.76364883533455       20.62160228239101       14.27190414901626
Au          14.49357382367860       19.61227610673262       16.93047292558351
C           11.15548353846679       14.11563708265284       12.43598799379325
C           11.67297855077753       14.19293475186593       11.33027615273996
C           12.26570365051836       14.24955681960722       10.04479318257127
C           12.98407240144963       13.15801515983875        9.54422888319951
H           13.08314215708918       12.26216603099774       10.14631384913731
C           13.55966615210476       13.22289552954882        8.28651403848381
H           14.11302762478896       12.37280556168866        7.90447525732923
C           13.42579101459036       14.36974973491828        7.51373149828065
H           13.87483346396297       14.41629223543538        6.52876440538359
C           12.71354363229077       15.45657379679410        8.00522836214029
H           12.60775807893951       16.35270008094839        7.40443538096481
C           12.13582635753558       15.40259533986168        9.26256844422232
H           11.58275137969076       16.25086275272603        9.65036963336617
C           15.30802168350523       21.34610239094695       16.10621472664342
C           15.71704952088775       22.37282775359030       16.63441181425065
C           16.17362900451120       23.57359344513527       17.22577054553927
C           15.53439487139786       24.07877395844149       18.36529727888805
H           14.70608915008757       23.53049015761686       18.80020570246269
C           15.95905399494499       25.26999779948536       18.92785703270660
H           15.46137946424244       25.65523206180195       19.81051977667109
C           17.01780275182994       25.97136633605847       18.36381725112818
H           17.34555979995362       26.90481926439145       18.80578164783586
C           17.65730763561623       25.47459695927625       17.23486349583193
H           18.48424706602095       26.02099365132441       16.79616630192420
C           17.24415676235484       24.28172652267626       16.66634033317717
H           17.73829679419087       23.89211677861864       15.78394585558372
C           13.98977253405629       18.31183837382311       18.39090978046669
C           13.90163697704586       17.71418994383300       19.45248817059936
C           13.74587829868561       17.00192399787885       20.66784976291043
C           14.75663358645223       16.97693412465967       21.63401179698620
H           15.68683871159623       17.50009908820766       21.44695353479517
C           14.56483290858822       16.28671788165369       22.81983354451263
H           15.35139884719893       16.27195996777641       23.56538354437697
C           13.37074580424533       15.61793108310909       23.05838842055230
H           13.22452489315782       15.08195238389040       23.98864305306096
C           12.36242611542982       15.63703012650371       22.10224146676957
H           11.42977710433746       15.11489923460436       22.28410367003355
C           12.54630425986664       16.32332851218832       20.91442527108193
H           11.76217034873532       16.33806664705766       20.16315194597947
C            3.60292814768757       16.69472483648705       16.46894650080258
C            2.46209342529529       16.30769736872235       17.17929825211892
H            2.55503133421977       15.95991876585209       18.20206425572158
C            1.21294318893491       16.37526343811313       16.58300453207570
H            0.33434640214679       16.07774779775136       17.14338251655467
C            1.08462838950946       16.82553530203377       15.27497002012128
H            0.10512597803418       16.88211947216472       14.81512152305751
C            2.21171669534690       17.20366026200021       14.55803287831719
H            2.11890076407125       17.55241231072477       13.53625094901947
C            3.46125660216070       17.13564686132320       15.15184701196468
H            4.34205407782746       17.42505173897912       14.58908706596992
C            5.02740627752468       17.00346718719636       18.94400907896874
C            5.73816660071211       16.34345275078606       19.94912858297471
H            6.37685860736518       15.50398115346441       19.69788115689452
C            5.62547848795229       16.75813454477050       21.26690088335716
H            6.17403136532817       16.23618931994261       22.04200905080707
C            4.82447035904417       17.84323959221646       21.59484023782935
H            4.74134549495852       18.16237556205515       22.62698699034388
C            4.13338075339364       18.52142738945671       20.59909884888988
H            3.51347873217716       19.37450390718826       20.84863968377956
C            4.23660524628102       18.10788636678339       19.28139113956313
H            3.69537366481429       18.63795520604715       18.50479551432981
C            4.96925790574868       14.10691711264256       14.62882188727911
C            3.76503185404506       13.45793117439116       14.92047221316132
H            3.64890865966573       12.93586762500150       15.86405533271447
C            2.72265622636160       13.48460911256054       14.00887900812159
H            1.79135279085184       12.98230119379150       14.24312489753743
C            2.86841777891638       14.15200486035598       12.79875925139371
H            2.04962012554968       14.17011006321601       12.08925955262759
C            4.06161075701388       14.79428872565077       12.49792255818235
H            4.17980530603947       15.31492646024167       11.55487070603654
C            5.10520475533863       14.77382989280492       13.40969740716626
H            6.03697382184525       15.27969224731702       13.17857392155390
C            6.58665467023591       12.48723825522544       16.41324450889068
C            6.92299708266740       12.21931606353105       17.74433223662680
H            6.91114673964062       13.01826785482198       18.47580852132896
C            7.26156340817093       10.93225428654078       18.13280738350142
H            7.51637409932677       10.73573784353396       19.16788240631549
C            7.28072286018124        9.90344109274058       17.20098550055327
H            7.55426734463381        8.90013031846404       17.50547983242718
C            6.95385986214746       10.16190583194001       15.87618791720475
H            6.96650442390368        9.36063254488383       15.14665117189721
C            6.61651854529727       11.44599251835623       15.48014163341586
H            6.37149802327082       11.64620367097897       14.44265558949342
N            5.68267145250291       14.92816354800540       17.25673700013943
H            4.97340978713320       14.37032472826177       17.72152707639212
P            5.27151463631118       16.62182800783689       17.19358737897944
P            6.33121298887986       14.18070301117843       15.83039769890807
Au           8.26341020332629       20.20479339206413       15.35266295970727
Au          11.97140385548734       15.75550634917262       15.66152895008824
Au          10.89110099047243       18.78988761838626       12.92702145427213
Au           9.21564791534287       19.02416239293866       17.78682047576343
Au           5.49324350277934       20.00424008278626       14.35943986121344
Au           5.99227490892468       20.58963422125860       17.34304287308896
C           14.28650967667901       20.20861937290870       12.39391068654623
C           13.90507932907639       19.91305333723144       11.27973756677013
C           13.45965878319845       19.59759086866694        9.96694878616222
C           14.28585923819254       19.79059235902827        8.85436920223268
H           15.29058047277472       20.17077313113223        8.99633954189837
C           13.81679450815230       19.50651529249862        7.58221061699036
H           14.46191165126439       19.66165860965345        6.72507679703160
C           12.52310465140982       19.03470549202462        7.39736787409564
H           12.15394479437928       18.83295100569395        6.39880740540560
C           11.69840875687669       18.82779051085686        8.49737206536846
H           10.68744041861215       18.46066502557072        8.36041418501415
C           12.16956061182890       19.09839472604657        9.76892746361573
H           11.52766435716700       18.93237030266651       10.63349487432973
C            4.47240146626869       20.78866441582650       15.96388578302204
C            3.28344000712559       21.05428359638508       16.12275129538997
C            1.91675460077138       21.35564704100897       16.30357022255482
C            1.04239713793537       20.36637128359429       16.77606076357319
H            1.42772643977183       19.37775073326762       17.00098295801075
C           -0.29908765069560       20.65509901310276       16.95244069382785
H           -0.97175444396340       19.88763416545340       17.31828097035213
C           -0.78444617308896       21.92488862309224       16.66234471340015
H           -1.83589173149286       22.14664760122737       16.80206763165523
C            0.07633544030759       22.91026293985601       16.19406401764939
H           -0.30480346999821       23.89962361556928       15.96884877213616
C            1.42030264767426       22.63360160798857       16.01386487430763
H            2.09698315152373       23.39758051947476       15.64830191193710
C            7.20483765450253       20.25510197151876       18.89648327247218
C            7.78772550211509       19.87207181114862       19.90431879703949
C            8.35965717942208       19.54402888268486       21.16409932641173
C            7.62198925485069       19.73636249481281       22.33756188659527
H            6.61595066374423       20.13409217328297       22.27470978647681
C            8.17741252477954       19.42436036665289       23.56725145462355
H            7.59957928872442       19.57763425789909       24.47138723480475
C            9.47078516778463       18.92260754528041       23.64777161106026
H            9.90502019540887       18.68979392409847       24.61277883159224
C           10.21088718080570       18.72893504828852       22.48754694231048
H           11.22111711079970       18.33944613066701       22.54241078549636
C            9.65880582293967       19.03538217108791       21.25510154326213
H           10.23730694111799       18.89204854157699       20.34793623422403
C           14.03827144079143       12.77708295278783       15.25224233817342
C           14.14847489912672       11.59585700125859       15.98848924827987
H           14.24927411822111       11.63393122201250       17.06683443148302
C           14.12767632109970       10.36736876356187       15.34512935478501
H           14.21101840762198        9.45747330658225       15.92805849914328
C           13.99340291479167       10.30070794379942       13.96580860655224
H           13.97206145090096        9.33851067752234       13.46807944159140
C           13.88353321308109       11.47016310144707       13.22452797968813
H           13.77946783559179       11.42514376190977       12.14669164945872
C           13.89701839621930       12.69965217110429       13.86160473881442
H           13.80679968713574       13.61047635733001       13.28022270167994
C           14.39605694002948       14.16806040829761       17.75519912778176
C           15.63163234098786       14.52699310434461       18.29539122145385
H           16.39049177995787       14.97656032349998       17.66593129771758
C           15.89453355905281       14.30771083282325       19.63911756385495
H           16.85726003681262       14.59017649631580       20.04886158261959
C           14.93339715498320       13.73013859727012       20.45666608696284
H           15.14415759395816       13.56129979510774       21.50602947265783
C           13.69403631085101       13.38444748806354       19.93320024692654
H           12.93380213874740       12.94858822506356       20.57070330310342
C           13.42583298677542       13.60796186052814       18.59373267242386
H           12.45260035491785       13.34968870506264       18.18678184832399
C           15.47332920074030       15.87373593092398       12.56996978152788
C           16.21864427939903       14.70631905496484       12.38388366761415
H           16.59973687687578       14.16121543338126       13.24043448361289
C           16.47203009582237       14.24152714185577       11.10302453644877
H           17.04363308137851       13.33079685699622       10.96704074598799
C           16.00576029422600       14.94237144195071        9.99807153638527
H           16.21300049550224       14.57800907412491        8.99883343548658
C           15.26742434949391       16.10442937984838       10.17404820894232
H           14.89749023263042       16.65414660025979        9.31636205560870
C           14.98819775395164       16.55819399036379       11.45242864598892
H           14.39077165237707       17.45212560678114       11.59178528722149
C           16.57857389217101       17.57392596130402       14.61581224259568
C           16.98946293049475       17.70536139751395       15.94606583876002
H           16.53258786357372       17.09322061124045       16.71453710871716
C           17.99071249401253       18.60296747421139       16.28577683792615
H           18.30570604943437       18.68732326292022       17.31918685964360
C           18.57908747421314       19.39424160977084       15.30845953301300
H           19.35332947196989       20.10273601039401       15.57768932255366
C           18.17124525855627       19.27850086539951       13.98617897465029
H           18.62872067981924       19.89211010511653       13.21914944727923
C           17.17495974745337       18.37747601757183       13.63985332098131
H           16.86122807314610       18.29185760268752       12.60570436694884
N           15.24290098814627       15.32001351100731       15.36804324389278
H           16.12595638699492       14.82428830463564       15.33649190810944
P           13.92358459665158       14.42142040984026       16.02382053545851
P           15.10963391253589       16.59357542279442       14.19632954368160
Au           8.20552785861680       15.50902178532905       15.19968927724604
Au          11.90647602887360       20.38538168737238       14.97733660471850
Au           8.06010573298625       17.84419626873266       13.43509535738472
Au          10.10009808831089       16.27532314454840       17.83219982249418
Au          10.62633448291789       13.36973794340868       14.26330972606674
Au           9.88420552294002       13.60246661413643       16.97873226226368
C            6.25535567137848       19.29241121877570       12.65046541070975
C            6.66924904757126       19.01298285002954       11.52913688271149
C            7.11648966290095       18.77472921896189       10.20172044667820
C            7.01831294498091       19.78080070443408        9.23347675262843
H            6.56330070350416       20.72940419490910        9.49328292279116
C            7.49994556652939       19.55943460178922        7.95351778322261
H            7.42107489785822       20.34204050177447        7.20782307092104
C            8.08301026292217       18.34223947479540        7.62334763446578
H            8.45480671879792       18.17309720559402        6.61974870266467
C            8.18358887084121       17.33906248039819        8.58044292760310
H            8.63637946571807       16.38749002807851        8.32607235775866
C            7.70282469522980       17.55144286840591        9.86083346124942
H            7.78056389824278       16.77188529275554       10.61166234801040
C           10.38483992879555       11.98625864225916       15.76891226593109
C           10.56333055990647       10.79103661369968       15.96450266001644
C           10.77127014623687        9.41196015005168       16.19371780401507
C           11.60478223019807        8.99404397365946       17.23989909828876
H           12.07613626451031        9.73632711174793       17.87427662193092
C           11.81214592540729        7.64363666915331       17.46250039007717
H           12.45618584574062        7.32513402982342       18.27413840004410
C           11.19754439608951        6.69818055003830       16.65046624348972
H           11.36358202756051        5.64224315585696       16.82788167171884
C           10.37002437949480        7.10614337457032       15.61162375690015
H            9.89131420577080        6.36829922029540       14.97814287054081
C           10.15382533663345        8.45370136771880       15.38010938847034
H            9.51393042024504        8.77729954827859       14.56724659765505
C            9.33895405931213       14.45418793416004       18.77549434408526
C            8.98255716086119       14.42099459812776       19.94486435570020
C            8.57743616388762       14.38029014816536       21.30162895095368
C            8.01895048937993       13.22119279505182       21.85111346432817
H            7.88745010984033       12.34403218832198       21.22781083096184
C            7.64262729043538       13.19894784599509       23.18354304590968
H            7.21174901665412       12.29789987479471       23.60463794694045
C            7.81641422993135       14.32337487585073       23.98085952879670
H            7.52168579107398       14.29981546501042       25.02324277188956
C            8.36752358690115       15.47839646081345       23.44021492560666
H            8.50405258719737       16.35925297162442       24.05756296678332
C            8.74730225041376       15.51212134634413       22.10845385403383
H            9.16978455044426       16.41345150236315       21.67945440704712
C           12.51794680644068       23.87293313826558       15.91131004592142
C           12.54293740582272       24.91179966068504       16.84713229447755
H           11.89079602449602       24.87546112756837       17.71234950997527
C           13.40435680706062       25.98386731746676       16.67511397009366
H           13.42035135262824       26.78119749284948       17.40885501662220
C           14.25017006004357       26.03340667734501       15.57490782204342
H           14.92748603958730       26.86982308160275       15.44922469291424
C           14.23535003351306       25.00541567081207       14.64191240155356
H           14.89838075593645       25.03521592980350       13.78530695022848
C           13.37447638317351       23.93311355419953       14.80924784509768
H           13.37111767563961       23.12632301225487       14.08433670941140
C           11.11163877783655       22.30623987650454       17.85468331565329
C            9.89282476631849       22.55575377887086       18.48647545321599
H            9.04515422012273       22.90227321909494       17.90685593895540
C            9.76846650442669       22.37817780298589       19.85662862971464
H            8.82061829475591       22.58674744807237       20.33842699810118
C           10.84630996090976       21.92898725240855       20.60619994496356
H           10.74235212434460       21.78708745541399       21.67518550786360
C           12.05834871373227       21.65630702306587       19.98384095706005
H           12.90224416641148       21.29853910394036       20.56191788078083
C           12.18890532633332       21.84703393233340       18.61947449061158
H           13.13905823110933       21.64973331426278       18.13438710571724
C            9.70355484809552       22.34184784056687       12.82847896563708
C           10.76207150535350       23.19635490592323       12.51904957502273
H           11.08660443430879       23.93854861117335       13.23948711881120
C           11.40104683038268       23.10503270615814       11.29132686315545
H           12.22766218076834       23.76920862721145       11.06735221166510
C           10.98220783129367       22.17330304526337       10.35212030094996
H           11.48126093336215       22.10608304214963        9.39289305266989
C            9.92370446505054       21.32335381302605       10.64502846075193
H            9.57965925560965       20.60378043081429        9.91169744722569
C            9.29890952174291       21.39491553611467       11.88114180327398
H            8.47225362590680       20.73232337467792       12.10793969195903
C            7.43846109142741       23.43198078978116       14.29859073707592
C            6.93441041817050       24.06147228018840       15.44147329606318
H            7.48488830565263       24.00534028408127       16.37418393342715
C            5.73576166650534       24.75371871962843       15.38742210773161
H            5.35777220735607       25.24309199228130       16.27751044673635
C            5.01606127396708       24.81007853397299       14.20089705668874
H            4.07373559211609       25.34383849721295       14.16365734347771
C            5.50268464607823       24.17875197355011       13.06424441877330
H            4.94308363960401       24.21951054820023       12.13704173476782
C            6.70456090041598       23.48944044744282       13.11060082069985
H            7.07758035516759       22.99543882677511       12.22028953394865
N            9.88280257575746       23.20315663086890       15.53688059327954
H            9.95857041083524       24.19621348306772       15.35016931854415
P           11.37521103682661       22.46714424091757       16.06506146159017
P            8.86706736392100       22.32950769852146       14.44525255642225
