372
 energy: -566.120357079535 gnorm: 0.000656138045 xtb: 6.5.1 (579679a)
Au          34.03016923554441       22.59209412881483        8.39906909192618
Au          31.11881717265283       22.21075066108640        8.21585985573865
Au          30.84557836867664       26.44363645212768        5.52355653825662
Au          32.95801185032131       25.17060713089968        7.13847087506435
Au          35.50213986814710       23.69986487325880        6.19793292471825
Au          33.51133348534893       25.10073900940045        4.56812713570520
Au          33.41696973687712       20.89910076080817        1.35217838792472
Au          35.01125008328820       21.83177160794676        3.65741189327031
Au          35.25120821293658       20.86648581784416        6.44751108281145
Au          33.50460709855390       19.73170681469110        4.30657872332525
Au          29.69580035738222       19.52462343517729        7.40897492269449
Au          32.57353735949918       20.05666480550204        7.62568431167179
Au          30.80281212617465       21.51808818850840        0.77513165542032
Au          28.14404023009268       19.90043820558310        5.16321787356748
Au          28.68031868762296       25.49615562127608        4.13127671578360
Au          28.95011945308345       22.27442163610279        3.20145719008123
Au          30.74667838875495       23.95629177722075        4.68720446826076
Au          30.35669867887489       21.27888652480816        5.53426303542046
Au          31.80447519400956       21.87048505491934        3.18901382122899
Au          32.97297103122218       22.42292616938238        5.78157011226795
C           33.97104492414606       21.81522532785895       11.83076868451437
C           34.49727157754437       20.59060768994161       11.40274869256226
H           35.03223962653048       20.54242862206484       10.45986776233434
C           34.35165389186812       19.44616468881199       12.16804797934570
H           34.79061225549020       18.51353904466560       11.83126420901320
C           33.65190692205042       19.49725928198569       13.36712417943392
H           33.53448444774683       18.60285834674226       13.96713596441852
C           33.10837214754946       20.70011586289137       13.79431937481052
H           32.56560020056658       20.74806989417246       14.73112581784703
C           33.26680396499304       21.85195002918821       13.03642849996187
H           32.83869639548998       22.77975058410345       13.39593813887223
C           35.93691509129899       23.77062351373553       11.04550264412465
C           36.63456290340841       23.45235484022650       12.21363801214030
H           36.14634100155646       22.88248463224242       12.99587230552352
C           37.95106362351074       23.85825791978275       12.37384875572927
H           38.48265480125738       23.60369526018725       13.28317124228112
C           38.58653195015430       24.58804146199865       11.37794648388032
H           39.61551344615718       24.90156215874816       11.50743765551831
C           37.90272762260365       24.91202446270054       10.21346029162307
H           38.39258202563501       25.47914709455199        9.42993244289974
C           36.59050358842779       24.50034498555270       10.04638914103064
H           36.06570165854122       24.73681803764086        9.12576676013689
C           27.88446935109313       23.39911578759324        8.54987406270270
C           27.77904413626478       23.12759820300834        7.18478793371153
H           28.66524524692701       23.17598780493796        6.56415272505640
C           26.56304847595630       22.78941983313025        6.61591986780060
H           26.51389829389767       22.56807409875435        5.55585907631902
C           25.42024268726404       22.73141189314483        7.40205876992144
H           24.46788152830261       22.46444519151298        6.95968803362922
C           25.50618228214251       23.01904069054205        8.75717637018782
H           24.61778643011485       22.98331242406156        9.37660834979000
C           26.72733712222095       23.34649856306142        9.32974074665958
H           26.77802793585523       23.55757777014477       10.39134947407579
C           29.38787781809805       23.48083255585439       10.99377234004902
C           28.71372389019225       24.34365083765410       11.86617086109398
H           28.26977698279654       25.25904876352720       11.49187461745010
C           28.60468052494107       24.03371239316669       13.21338542400447
H           28.08041598786752       24.71071606039584       13.87751817188821
C           29.15659278012195       22.86063234487916       13.71072160743417
H           29.06299164473003       22.62011994672216       14.76294124523810
C           29.82881112547285       21.99701813443094       12.85652246457683
H           30.25943983722998       21.07701588193798       13.23504043826400
C           29.94879018354965       22.30941214540904       11.51239857870662
H           30.47826231739183       21.63490293237239       10.84669134873900
C           30.06601573180160       29.29567107794723        7.60521295566527
C           28.79329712435911       28.71739006870856        7.61578935370735
H           28.60091209442237       27.84159084899926        7.00399831662661
C           27.77694463687052       29.25865884282161        8.38716699576673
H           26.79378122252589       28.80163341845828        8.37772021204188
C           28.01973698749752       30.38383579132675        9.16289938244902
H           27.22635543307656       30.80826629872817        9.76649643771429
C           29.27900796071428       30.96993882626851        9.15863958040897
H           29.46852295000757       31.85324358057121        9.75706696874861
C           30.29662806637834       30.43489432606384        8.38464868176023
H           31.27119088477178       30.90989943245971        8.37437086720043
C           31.71315509326669       29.78840825365026        5.29318457999226
C           32.92485351431127       29.72256318904626        4.59627723256299
H           33.66951866318359       28.98345206780765        4.87338537457061
C           33.18619249050681       30.59919682720060        3.55500428622354
H           34.13571309896812       30.54476301499897        3.03446619010109
C           32.23681862281200       31.54195761300723        3.18192132408522
H           32.44288856675728       32.22643442981703        2.36779658875631
C           31.02436724364667       31.60331712213500        3.85443115153311
H           30.27945909546563       32.33597433190929        3.56682032572719
C           30.75998623772654       30.73108237503738        4.89954111286655
H           29.81023940430998       30.78681466075832        5.41932547287493
C           33.18756578232021       24.58661457133681       11.45556029458847
H           32.14019616624181       24.27734521565967       11.40028847086343
H           33.43638846558610       24.69512912244363       12.51525165586267
C           33.37860055978243       25.95914492935125       10.79376371878267
H           34.43743062667819       26.10731431194512       10.56016820788183
H           33.10982741520926       26.72860229453768       11.52549359530077
C           29.62109571439863       25.60041474230247        8.98778449178969
H           29.83060538180605       25.79369689651265        7.93125141290445
H           28.63385277913251       26.02485605448659        9.19340157849598
C           30.65213858027960       26.32095756399924        9.86325078981789
H           30.61755110726823       25.91045557123575       10.87580536122956
H           30.34295672202121       27.36753011300486        9.94158967706321
C           32.90204261158686       28.58285565231382        7.58397065706911
H           33.64121724219124       27.97961518065792        7.05128718431087
H           33.28615627785202       29.60657022137748        7.61706934357882
C           32.80296284669830       28.07493499901305        9.02680141593861
H           32.08297090282129       28.68676885930673        9.57790298271350
H           33.78054993291434       28.25066963333225        9.48796704917822
C           39.05354977355494       23.91534493239990        6.12412370648442
C           38.91667639483272       23.12548009709829        7.27123085888201
H           37.95041622615615       23.06241082941393        7.76184413288011
C           39.99714279715592       22.42955127692792        7.78914387536439
H           39.87104203994168       21.82964224250668        8.68320934726723
C           41.23293355818462       22.49976111115840        7.16000880055200
H           42.07823325547818       21.95279746173558        7.56006635397899
C           41.38186661208415       23.27327412295381        6.01716764518163
H           42.34467297176577       23.33302258601315        5.52345428550126
C           40.30459067629740       23.97934405119315        5.50212715946234
H           40.44443843824962       24.58341188015714        4.61341712462414
C           37.75907098163678       26.48468688607861        6.20595755932687
C           36.66154120486812       27.11125620605385        6.80000961328483
H           35.72131074465663       26.57503555295193        6.88439643392073
C           36.76366949114080       28.40589327916772        7.28472353322218
H           35.90329578715860       28.87889385636412        7.74452593114580
C           37.96576533287423       29.09242296986855        7.18559787479621
H           38.04597176565623       30.10416531144721        7.56475282237036
C           39.06751324260689       28.47612615032955        6.60678089459255
H           40.01045617061580       29.00513291645440        6.53486490605336
C           38.96828424971692       27.18218719367824        6.12174918239580
H           39.83771511278427       26.70806570646790        5.68057567430087
C           32.31375608075616       26.10028202246835        1.69339497462876
C           31.40428424426713       25.18322891519413        1.16465374117624
H           31.72478394143663       24.17426599148617        0.93409983222040
C           30.08446093287983       25.54278304122246        0.94146770951053
H           29.39511044605553       24.81647779346260        0.52569417384213
C           29.64628243402169       26.82350970222942        1.25314775933616
H           28.61550545667426       27.10517404128982        1.07509891692367
C           30.54114059128707       27.74554299214450        1.78336553250024
H           30.20788071181834       28.74729822303349        2.02923414105977
C           31.86039135415674       27.38617609155436        2.00611419748556
H           32.54733699569474       28.10944088362231        2.43138144712811
C           34.99072865425143       27.05371520066369        2.02901398960067
C           35.25165941684131       27.61755257455434        0.77564946837437
H           34.82822514995819       27.17096238362812       -0.11711565593526
C           36.04094285047991       28.75185766257157        0.66995828203947
H           36.23503370228636       29.18097951619149       -0.30598185943199
C           36.58045060615426       29.33984589439637        1.80716757785339
H           37.19833787367583       30.22536708182960        1.71843655148110
C           36.32540381914332       28.79262354672516        3.05764593373863
H           36.74213648591174       29.24602387417102        3.94973136590499
C           35.53630943727656       27.65788833564427        3.16629836598884
H           35.33133122547355       27.23311788583758        4.14399162279541
C           35.24045699720141       18.32339975397648       -0.13046384951555
C           36.30673870313666       17.53608788798108       -0.57544832640871
H           37.28574595665959       17.97577455591246       -0.72694110646912
C           36.12379413303874       16.18633753124310       -0.83324836128475
H           36.95941336359848       15.58967067924958       -1.17971013034595
C           34.87648701437362       15.60090633295937       -0.65780108562714
H           34.73731449594961       14.54669614619880       -0.86548989085561
C           33.80952739960311       16.37138272788320       -0.21763216136913
H           32.83183143891477       15.92408146842854       -0.07828671865921
C           33.99205027801448       17.71915410784240        0.04611155958851
H           33.15622394002356       18.31728373930714        0.39512989657780
C           35.75700229264109       20.90138900071507       -1.36882202754326
C           36.95334047915797       20.69669541733226       -2.06435099942446
H           37.70939360579177       20.03131449191916       -1.66370508874524
C           37.17838519299517       21.33609873572929       -3.27336837127910
H           38.10807990388118       21.16648730419888       -3.80365859408340
C           36.21836574049715       22.18625918634175       -3.80661342268415
H           36.39765619305366       22.68045075880122       -4.75397248692355
C           35.02849883503382       22.39976413029860       -3.12454919043943
H           34.27299209698472       23.06023149587287       -3.53499269282761
C           34.80105972679796       21.76392219014839       -1.91452116557745
H           33.86951360515204       21.93123005888365       -1.38245289470441
C           37.84898901459878       25.08190830059104        3.73553717659246
H           36.96473632179754       25.59313376377021        3.34693866995321
H           38.68607069640798       25.77268118830379        3.60009449851719
C           38.12686357701670       23.80958125036253        2.92299537462580
H           38.66466353017652       23.08575363382631        3.54273434466952
H           38.79436863797218       24.06730376576564        2.09403263825684
C           34.52157133756597       24.39073245577451        0.93213003976177
H           33.98351317191834       23.44912177155958        1.07269495353936
H           34.22984690701094       24.77947178311817       -0.04807740471881
C           36.03035954647590       24.11175142069951        0.91300081881064
H           36.57429548489482       25.05783946336476        0.98380664525744
H           36.26935501582718       23.68403596125809       -0.06559260025779
C           36.92444472589134       20.24250516034641        1.20863107782309
H           36.69193598480219       19.91657426236175        2.22633116296948
H           37.68005198321351       19.55304423430215        0.82161967726988
C           37.55652370216917       21.63903348126347        1.25617247180804
H           37.73764207344331       21.98848061139008        0.23558300707214
H           38.53881421093575       21.52104470118184        1.72557722280128
C           37.69518933668571       19.07247007095953        8.32472152294725
C           37.51398243415725       20.16088338790595        9.18206016482019
H           36.76643838301234       20.90934701552279        8.93984769697831
C           38.28399141666653       20.29749137993608       10.32703381765883
H           38.12726953377666       21.14648653303877       10.98325220392234
C           39.24917665596718       19.34566593711832       10.62754325095274
H           39.85288782588872       19.44906716680398       11.52128861983904
C           39.44393556390003       18.26297477248117        9.77890939504141
H           40.20125921626070       17.52300009315053       10.00946002942566
C           38.67601329165235       18.12430060995872        8.63394078516433
H           38.83987870143805       17.28083171823665        7.97239678908757
C           37.85281214511187       18.85126220888993        5.46836823772855
C           38.61950674607513       20.00070724299294        5.23916715499652
H           38.52353666885669       20.84644072636134        5.91300022484853
C           39.49743650998003       20.06675149835204        4.17149410069467
H           40.09593619213634       20.95837396785375        4.02024044948761
C           39.61209551781361       18.98885607394739        3.30095233408186
H           40.29907584787772       19.03606852372129        2.46441089696059
C           38.84946028104050       17.84892839115951        3.51206044578878
H           38.94014098482542       17.00430580233109        2.83876148232622
C           37.97403452445955       17.77672002198344        4.58720951111172
H           37.38875637418503       16.87703194186346        4.73617985785711
C           31.22496109018892       17.39896964107779        3.01634545287498
C           30.38229563265581       18.49682634976655        2.83844495487787
H           30.52050298523080       19.37407726437748        3.45587757112514
C           29.37963820790858       18.48311290939067        1.88374131882161
H           28.73854976813875       19.34997300048005        1.77012876846856
C           29.20259276066964       17.36439739469144        1.08130688279559
H           28.41990117471855       17.34889578531467        0.33243485196904
C           30.03543758693044       16.26620512941545        1.24366743882506
H           29.90306259859572       15.38925726424158        0.62095749540165
C           31.03949219837287       16.28021600683286        2.20153649871165
H           31.68151376343586       15.41421437062455        2.31178149382306
C           33.70723814103482       16.23629210181884        3.82261229765393
C           34.86896846073754       16.65336295164889        3.16506871547857
H           35.03656990490901       17.71375369152576        3.00384018032477
C           35.79657937093865       15.73107106708079        2.70791619910152
H           36.67936260698317       16.07211249461246        2.17938814400761
C           35.58753773425439       14.37463606235985        2.91700580100111
H           36.31320816465210       13.65239640816155        2.56276181996956
C           34.44506415757572       13.94627578933271        3.57923827032998
H           34.27752925303496       12.88844806892438        3.74412232789309
C           33.50695256437616       14.86558587347717        4.02407774863354
H           32.61294174614753       14.51277912037855        4.52527733473664
C           29.44108688504462       16.40762843944010        9.22966380350009
C           28.80832519421082       16.00279280223383        8.05038562208281
H           28.58647552522083       16.74221459574248        7.28731132998382
C           28.45902139612330       14.67694373147267        7.85031495133159
H           27.96449012069896       14.38333110557780        6.93136118923074
C           28.74070910191780       13.73201660334982        8.82736090051087
H           28.46767761800979       12.69469220359264        8.67491201312771
C           29.37056800816019       14.11956718279349       10.00270720786658
H           29.58950185700373       13.38521352870655       10.76895842564416
C           29.71948953662601       15.44567715566945       10.20651328551460
H           30.20322307963263       15.73205727675680       11.13319163757679
C           28.73462013025464       18.81133522883093       10.68840920665490
C           28.71333755449934       18.32571831395662       11.99975583986143
H           29.38139153299039       17.52580342853274       12.29750083464652
C           27.83464251018279       18.85478682637319       12.93157323366561
H           27.83048081832694       18.46772917570014       13.94372473194635
C           26.95667406965413       19.86842830853210       12.57027136455685
H           26.26671692421461       20.27554205580763       13.29970276584076
C           26.96311830954726       20.35417858653703       11.27064251895300
H           26.27685440146501       21.14045288777843       10.97839856817614
C           27.84745611679364       19.83315556350486       10.33988568552842
H           27.85315928901072       20.22060916198878        9.32594087219431
C           35.87010566868512       17.28417424996130        6.95208557207031
H           35.28923734936153       17.10650662400354        6.04305302496209
H           36.63684974298919       16.50579497242813        7.00059582174405
C           34.97416093915059       17.15976175752074        8.19631687668693
H           35.41400501955976       17.73204178695330        9.01914026619762
H           34.96399247936314       16.11213304379087        8.51481644647191
C           31.60680866088878       16.83889928428947        5.76877141958362
H           30.92573167160582       17.61998946925580        6.12053302974961
H           30.98100799784601       15.99993851392644        5.45010091959414
C           32.49669687075487       16.37097477429930        6.92450772295954
H           33.31222853491220       15.76049061487676        6.52787251045420
H           31.89315746015022       15.71380594636596        7.55790978815562
C           31.49574528156671       18.19613335809211       10.25638678159966
H           31.85454934423115       19.22903067949486       10.23194650959384
H           31.36815140563798       17.93377065867126       11.31043077298701
C           32.58015275680766       17.27798309586166        9.68042779240892
H           32.22561932260574       16.24346970945603        9.69317284798249
H           33.43050230046714       17.32453814614444       10.36828821343600
C           28.95193910862112       20.00684452586955       -1.82254007168205
C           27.76898857738116       19.70076111163549       -2.50201658220319
H           26.98552280558100       20.44322394399074       -2.59863960043608
C           27.58669295955167       18.44462845230379       -3.06092511868729
H           26.66581463245141       18.22215385367087       -3.58711932811501
C           28.57764326078754       17.47850251099583       -2.95431865387941
H           28.43223545289901       16.50044590602365       -3.39716696455246
C           29.75607251361445       17.76874084007946       -2.27881593711623
H           30.53408201065341       17.01913063926200       -2.18965148171335
C           29.93879674663853       19.02067145478745       -1.71458953661604
H           30.85698087493732       19.24338163186126       -1.17968048733574
C           29.98772389520992       22.61817237785247       -2.44888866481796
C           29.43924835490267       22.58520404798987       -3.73467636018715
H           28.59754699832100       21.93571364392813       -3.94771268996689
C           29.97205224503466       23.37304896505627       -4.74238901084761
H           29.54020130328792       23.33782256986643       -5.73561004869111
C           31.05465424958432       24.20371445183349       -4.48355102328861
H           31.46708184003247       24.81949926075923       -5.27390567226408
C           31.61070229591982       24.24057877845376       -3.21185695902367
H           32.45480082462674       24.88796895313623       -3.00214380223702
C           31.08417573584128       23.44843080167755       -2.20398574645075
H           31.52598639360993       23.46874624646457       -1.21312270288521
C           26.64167160448511       17.19627638066044        3.58791429874417
C           27.71318515622525       16.56025236504423        4.22188116577341
H           28.27775113513224       17.09930453567797        4.97590287382825
C           28.06941632205471       15.26344638235072        3.89151823783415
H           28.90730222629747       14.79040622812603        4.39199813578412
C           27.35924561268755       14.57818681375730        2.91467725491150
H           27.63480565978019       13.56349036674589        2.65326490114340
C           26.29717993674102       15.19921305777107        2.27175653742397
H           25.74128351322119       14.66923222531834        1.50727248883871
C           25.93881775582926       16.49759869805438        2.60232397590057
H           25.10809420278558       16.96524867457829        2.08717229997279
C           24.84839005531953       18.75982840518636        5.22336955608571
C           24.94187299104968       19.35521663887949        6.48422080302115
H           25.84880586291917       19.88620624678833        6.75605963799202
C           23.89336353781814       19.27204021983410        7.38656471253917
H           23.98376704610267       19.73868948924108        8.36096587492704
C           22.73569832983824       18.58843167082083        7.04139470189222
H           21.91519033717675       18.52002834001723        7.74568615505567
C           22.63253617936114       17.98670766455098        5.79355267911039
H           21.73213995579025       17.44735988973041        5.52397362720385
C           23.67937861587609       18.06791090217748        4.88976522820044
H           23.59098701258499       17.58579627013445        3.92256012460683
C           25.52768777618117       26.40987359404866        5.19181114839396
C           26.14995479479411       26.14563901692506        6.41402145001643
H           27.13632462670747       25.69322858850657        6.42159079315896
C           25.51888677863174       26.44898030458575        7.61003419922575
H           26.01067950511437       26.22388975981512        8.55031067169067
C           24.25915828177989       27.03349943150530        7.59909452412129
H           23.76534008701536       27.27504657083817        8.53282328946181
C           23.63550246161164       27.31182729357119        6.38970145938753
H           22.65505225013462       27.77316159392225        6.37901375138114
C           24.26179654574040       27.00245221297368        5.19255113022195
H           23.77002448465356       27.22567261536398        4.25230071755718
C           25.95418439647281       27.25652596517519        2.47631868711275
C           24.92873125455210       27.16016894213450        1.53263285511491
H           24.32916986273058       26.25995009332212        1.46502381117198
C           24.66531687562582       28.21876442141278        0.67563851313589
H           23.86463978284702       28.13237698475822       -0.04953665912796
C           25.41698255225415       29.38303676576909        0.74698112945427
H           25.20495023235591       30.20765975049020        0.07704340257521
C           26.44198784285429       29.48940990293403        1.67851405835922
H           27.03283765775969       30.39601833023965        1.73874110659267
C           26.71206042225532       28.43347568311266        2.53293912185904
H           27.51299850647839       28.51630803390670        3.26171266478056
C           27.68506772132985       22.41060209636737       -0.75473211678896
H           27.87391989137995       23.41453436666536       -0.36712510250571
H           27.13601311467627       22.54165404332251       -1.69084532476874
C           26.82176433069422       21.59486945625785        0.22372173186095
H           27.14542525463164       20.55015946368927        0.20495455172738
H           25.78533581760975       21.60324935011269       -0.12923400872623
C           25.55051265107433       19.66866981899102        2.57048328114367
H           26.17053375530995       19.39010606461128        1.71637412181974
H           24.55570707958537       19.25497327922990        2.38476321660950
C           25.41790934877740       21.19815269572690        2.68186836798398
H           25.28338046208123       21.47387847353203        3.73173859529054
H           24.50636970715886       21.50717630574572        2.15962731252486
C           25.50030483373212       24.42923607990984        3.13206952181878
H           25.61955965085389       23.71194479724659        3.94714805337285
H           24.42691211060828       24.60674359559886        3.03531196187926
C           26.05646650338828       23.85807043489867        1.81224711123266
H           26.81465362325934       24.53437760025173        1.40556841124340
H           25.25254416558570       23.81429178537185        1.07169902643726
P           34.23258749921672       23.22936356475087       10.72005429577464
P           29.55017669233177       23.74955432425464        9.20753164888790
P           31.34337282466209       28.54128329688730        6.56059751617963
P           32.41031287915745       26.26587543472754        9.23280349901679
P           37.56730973913638       24.79424913943064        5.55525669332283
P           33.96045689026131       25.57755894524605        2.25837068350932
P           35.35581606163353       20.10606013427644        0.21540802988541
P           36.63620696834418       22.93387493011617        2.23446822867739
P           36.66164812920729       18.96225933465982        6.83363324995626
P           32.52146379293077       17.52520642806337        4.29686588698840
P           29.84238388725019       18.17371721676928        9.39230317422286
P           33.21112131283745       17.73155864359916        7.98882887548629
P           29.33548259235287       21.61761385599065       -1.07983109209843
P           26.27200730888582       18.89943190316573        4.10522150082260
P           26.40469895503817       25.96184750501747        3.66356374583203
P           26.84212146955618       22.18292648251913        1.98997896521999
