326
 energy: -531.274344172216 gnorm: 0.000575957017 xtb: 6.5.1 (579679a)
Au          10.15714096828211       10.96310002808799       10.03033634116815
Au           5.80239239174038       11.48033091583642       11.26377783278775
Au          12.76602970581155       10.48606984779152       11.11674732275262
Au           9.98931782142175       11.68787539112267        7.31722891139069
Au          10.72776259026669        8.22063090465092       10.63722084749004
Au           9.20310311459273        9.03628479178578        8.35049828693768
Au           8.09335305488341        9.48386050181775       11.05051723811626
Au           6.93071637976101       11.05600271123431        8.56738900919646
Au          10.31382758752311       10.23048678611850       12.82400015156047
Au          12.04574823956468        9.66198274552416        8.15212562405967
P           12.23215588906256        6.66083277590876       11.70954170331851
P           14.24994050315622        8.90405135363977       12.18531444366531
P            5.79043868640314        9.44482711387879        7.14690535855517
P            8.13107017156952        7.63469465090941        6.74105301130233
P            4.24659916745236        9.96224998828981       12.25389648661703
P            6.38348964321015        7.92590946472531       11.79987070636860
C           13.35203866791699        7.46950636435648       12.95210208969245
H           12.72585223592356        7.86192554369278       13.75700271637862
H           14.04758953647223        6.75092600047816       13.39064678215611
C            6.29620047056564        7.66047201285237        6.99064400880356
H            6.09682842228311        7.15871667240703        7.93926086088759
H            5.73597944418098        7.15240698314374        6.20525312434039
C           11.33508379080124        5.42565176573270       12.70315114342742
C           11.23843921383741        4.08570006694823       12.31825600473172
H           11.80453903909529        3.72333435655191       11.46743130909060
C           10.42508712375575        3.20736506871871       13.02014100443358
H           10.36680352454874        2.16917442758145       12.71237552632732
C            9.68553879582485        3.65526715993923       14.10603357986485
H            9.04638415354355        2.96838584066840       14.64913914304900
C            9.76383044926293        4.98761057794014       14.48943831623998
H            9.18449754077844        5.34652836034732       15.33251550454488
C           10.57331095815960        5.86776442367581       13.79066208030622
H           10.61569457296012        6.90657177146886       14.09694507575689
C            5.74493320211507       10.04880519978387        5.43366657650093
C            4.75766040352197        9.67004296058447        4.51884015540327
H            3.98195097883537        8.97268994844722        4.81663142876854
C            4.76476154760282       10.18931242309762        3.23361917223614
H            3.99511391804278        9.88942573501528        2.53096746662729
C            5.74941499228169       11.09094571661862        2.84384001683504
H            5.74545347633785       11.49276036123863        1.83720692324763
C            6.73456859098686       11.47212172283549        3.74328089539557
H            7.51405144563853       12.16906738565958        3.45578500653437
C            6.72695373806553       10.95297603159642        5.02672760217023
H            7.50039931835354       11.24906759201474        5.72371671100404
C           13.36580713790923        5.69066370372130       10.67237565756020
C           13.36677748026741        5.92533599746000        9.29738040233012
H           12.69696638069948        6.67026944170125        8.88331795499242
C           14.23281300689978        5.24159598048452        8.45895462493708
H           14.24064732546815        5.47002633026323        7.39931235225619
C           15.10181637619087        4.29836998633394        8.98673014216428
H           15.78379362240180        3.76217260092221        8.33669365856198
C           15.10583815447914        4.04718996113801       10.35374126362087
H           15.78803085647323        3.31368969920807       10.76908523505631
C           14.24947671885344        4.73988063452634       11.19444540844807
H           14.27024871410233        4.54741233577553       12.26172866784061
C            4.02466527412540        9.37433221871390        7.58967527261323
C            3.35964040182072        8.22705363793406        8.02516243408272
H            3.86523014560646        7.26842039212267        8.02649040144561
C            2.03754383373023        8.29448706483055        8.44297036215131
H            1.53336526362425        7.39303983632372        8.77318371265121
C            1.36353322763401        9.50687442653017        8.43886049800312
H            0.33156585667817        9.55638181165231        8.76601675037029
C            2.01883282260643       10.65873410296543        8.02301439985314
H            1.50185505084420       11.61153946977196        8.02774024113138
C            3.33580271754182       10.59206914259301        7.60435316578633
H            3.84372459393533       11.49317301767259        7.27720282735470
C           15.54947615939018        8.11754043549766       11.18796576513676
C           15.60437183952274        8.41099775898047        9.82541215760462
H           14.88096890617276        9.09592025866861        9.39810388628896
C           16.55080146208795        7.81597691526373        9.00645016777334
H           16.54779228603845        8.03146379191621        7.94406971138051
C           17.46875340423657        6.92769194431073        9.54655320347584
H           18.20980054471083        6.45664212713459        8.91085585379151
C           17.43215828756177        6.63253361268158       10.90426202656661
H           18.14581912051415        5.93442116592711       11.32763953372303
C           16.47777639903324        7.21689197877292       11.72135948173827
H           16.44790404386951        6.96902430105203       12.77693486023720
C           14.37883538651511       10.10002350993806       14.68830424713677
H           13.31338029863623        9.90634038406359       14.73317398519097
C           14.98538872870671       10.79532038411864       15.72119438181795
H           14.38956228712008       11.13586680231359       16.56038476549192
C           16.34688679021139       11.06490337279017       15.67750354599340
H           16.81973998395415       11.61527614937747       16.48297782405688
C           17.09951445572386       10.63153976976589       14.59470451285287
H           18.16262430365799       10.84103673489893       14.55151915706810
C           16.49587141103552        9.93329491914491       13.55850035751654
H           17.09495795843277        9.60758230560514       12.71547710376567
C           15.12901859127293        9.64499193636045       13.59807298531810
C            4.26097522738655        9.79132005630353       14.06672454945582
C            4.96313557172805       10.74537421718636       14.80490884329051
H            5.45210016485086       11.56364181602981       14.29019487936475
C            5.06669216380491       10.64452134075347       16.18291722879023
H            5.64738948051640       11.37699351979967       16.73137526427022
C            4.45561983076082        9.59043107389751       16.84507139442683
H            4.54196544526388        9.49970446529090       17.92172471421464
C            3.73572971839914        8.64464406786914       16.12508497085425
H            3.25546398907836        7.81973024692266       16.63968690465555
C            3.63678812397476        8.74121240730185       14.74655201582132
H            3.07851746025955        7.98993552778031       14.19859577163542
C            8.33689585708765        8.05006421175148        4.98015119399177
C            7.53486705562903        7.52110755861708        3.96456022760828
H            6.76143421617386        6.79777578195753        4.19891566455380
C            7.71323811672529        7.92521619635197        2.65141430245231
H            7.07788801136478        7.51506651014741        1.87420382396912
C            8.69091267808999        8.85940710958847        2.33116606838121
H            8.81423215343073        9.18269585246208        1.30396741242903
C            9.50210008665602        9.37996928317103        3.32814210402800
H           10.25452384415367       10.12383663822263        3.09356295161505
C            9.32854752819138        8.97185281871841        4.64080525955182
H            9.95628043595421        9.38997159239062        5.41843050762490
C            6.63027325984613        6.30811065363269       10.99937093481806
C            5.69150913941072        5.67301218907108       10.18479764472566
H            4.69767272377725        6.08913482218373       10.06760683518661
C            6.01084206323564        4.49104940529379        9.53053841757367
H            5.26844148189979        4.00712451044199        8.90563642028481
C            7.27162013716898        3.93064667559583        9.67396837144255
H            7.51806332782320        3.00805830249939        9.16158079815439
C            8.22009783363846        4.56112593366715       10.46896538222303
H            9.21094988575727        4.13484040351929       10.57677958445865
C            7.90201512091620        5.73801919218230       11.12309171724492
H            8.64426968959751        6.22628696526015       11.74571210941286
C            8.58597969546796        5.86867075957844        6.82986687289210
C            7.80080914843945        4.81953207399911        6.34871548135559
H            6.83702930281205        5.02324175817900        5.89567311413213
C            8.24542813297441        3.50957232615890        6.44913778827627
H            7.62776595555328        2.70285135168853        6.07046542730188
C            9.47562795514953        3.22806179664195        7.03085810271359
H            9.81735656356603        2.20213052053971        7.10628756328061
C           10.26306597126548        4.26305089104319        7.51690341191148
H           11.22298345231353        4.05351808272412        7.97581683975795
C            9.81879139420169        5.57123941381083        7.41524405750220
H           10.43257191486067        6.37919461805754        7.79789989941003
C            6.62357523975118        7.53759008144585       13.55873309134206
C            6.19256945543889        6.34116264443158       14.14000891880502
H            5.67439031699836        5.60226424402609       13.53815582410777
C            6.43216591839045        6.09481888644253       15.48290987624513
H            6.09385558666603        5.16416228457192       15.92498832305806
C            7.10351802413150        7.03130962351074       16.26181398328577
H            7.28766565957305        6.82871068900187       17.31053901779672
C            7.53392061247481        8.22237604395587       15.69532069657902
H            8.05337859382906        8.96723980773065       16.28803802369433
C            7.29411407598399        8.46783092276458       14.35403305207377
H            7.62711841477032        9.40056013164246       13.91725098873313
C            4.55562547023085        8.24076877029557       11.64497493173068
H            4.28891201947860        8.22454311471243       10.58668737731974
H            3.97237928437969        7.47785004126663       12.16131287811933
C            2.49361086736926       10.28601109098657       11.85918582955518
C            2.16905515813972       11.59372515851237       11.49100426270633
H            2.95380394433100       12.34041610651327       11.44043529946158
C            0.86438321838875       11.94610959789201       11.18655762328303
H            0.63375529246624       12.96676787890382       10.90192411264702
C           -0.13992057892274       10.98945626898631       11.24726984561153
H           -1.16314539174759       11.25834038984459       11.01123264110672
C            0.16958830443805        9.68390382934949       11.60887319654753
H           -0.61267661079023        8.93449540220752       11.65520098199799
C            1.47632315884500        9.33156849631857       11.91236689496733
H            1.70302244023555        8.30800714568699       12.18902913351812
C           13.52242580031162        8.52741623884287        7.24091860043415
N           14.36541325986000        7.85851263201223        6.82398640574838
N           11.36186901850130        8.72560031919448       15.46048313240177
C            9.92035463227059       12.18068085200686        5.28678286324008
C           10.86733566932031        9.35031415001245       14.62318194258929
N            9.90536490721288       12.43259928361806        4.15943924904575
Au           7.89462226344697       12.94122554058375       10.29971420662518
Au          12.25045304328115       12.42397179136263        9.06690006530731
Au           5.28659866384796       13.41788249216455        9.21384105591849
Au           8.06251838583838       12.21671265460518       13.01318277291839
Au           7.32461960818009       15.68329358190801        9.69308286523825
Au           8.84942217884323       14.86726998323922       11.98011682880457
Au           9.95872275443949       14.42039333464450        9.27934457204911
Au          11.12119731371008       12.84850618353544       11.76314042925154
Au           7.73873045329604       13.67329674901691        7.50645437998618
Au           6.00675803425881       14.24205794087591       12.17830028594218
P            5.82015777027966       17.24320921489671        8.62075161307896
P            3.80233808711783       14.99997734251319        8.14521734447648
P           12.26184850905330       14.45928313932940       13.18355727490616
P            9.92129028042675       16.26949711968444       13.58930406247631
P           13.80578751101471       13.94189801799114        8.07656921706193
P           11.66885250177158       15.97816474429789        8.53051535229219
C            4.70019674313032       16.43447554795074        7.37829493317366
H            5.32630091822578       16.04197442387295        6.57336993660863
H            4.00464450673929       17.15305967937334        6.93975825902149
C           11.75617343353407       16.24367774490878       13.33976098852565
H           11.95560976857852       16.74541640830532       12.39114653839126
H           12.31637833475074       16.75174991638018       14.12516022468819
C            6.71722749302685       18.47828838291880        7.62700780463985
C            6.81389366187277       19.81828266184469        8.01175070571223
H            6.24780845384731       20.18075284956194        8.86254035803233
C            7.62725057482715       20.69652876002771        7.30975874291174
H            7.68555446132777       21.73475250662249        7.61740914671403
C            8.36678114345796       20.24849699631506        6.22390801642482
H            9.00594278631009       20.93530820568502        5.68072154915103
C            8.28846563005090       18.91611252363433        5.84065131293041
H            8.86778525300905       18.55709344077440        4.99760813485388
C            7.47898187443456       18.03604753796554        6.53953593326416
H            7.43658298752704       16.99720565444585        6.23337272817811
C           12.30735199609262       13.85535592995506       14.89682167414554
C           13.29458905172271       14.23418109655972       15.81166439688195
H           14.07028351360550       14.93154931840172       15.51387099175786
C           13.28746995364433       13.71495966850984       17.09690604999355
H           14.05707882689968       14.01490860000298       17.79957363800848
C           12.30283669410771       12.81330856012650       17.48669475494776
H           12.30677546487403       12.41154223924893       18.49334785158788
C           11.31772414427525       12.43206388762518       16.58723933256352
H           10.53824527521444       11.73511749986253       16.87474560243099
C           11.32536099707355       12.95115922324091       15.30377225226312
H           10.55195228184730       12.65500752386769       14.60677565849119
C            4.68657220527104       18.21350181349628        9.65788126757259
C            4.68564088080400       17.97893570783469       11.03289556482893
H            5.35544381979560       17.23401760303836       11.44699426577728
C            3.81965594586977       18.66276243554071       11.87130232397657
H            3.81185213272912       18.43440689308481       12.93096107402203
C            2.95066309482145       19.60597649183842       11.34349019000539
H            2.26872644490395       20.14224356632728       11.99351227601314
C            2.94659971829570       19.85705351374704        9.97646064612069
H            2.26441369987172       20.59054453762479        9.56108886401662
C            3.80290886258164       19.16427303462930        9.13577554202511
H            3.78209920122479       19.35666450800460        8.06847923784653
C           14.02763888757209       14.52970486422962       12.74082050832066
C           14.69269616617714       15.67693282589369       12.30524540754420
H           14.18712660059795       16.63557634778995       12.30382684386290
C           16.01479639236190       15.60943774007442       11.88745553739769
H           16.51899512685293       16.51084551394033       11.55716446567298
C           16.68878519053834       14.39703929447188       11.89167944203573
H           17.72075634395761       14.34748489537987       11.56454060332193
C           16.03345715454040       13.24522819904723       12.30761441883426
H           16.55041870350852       12.29241323013353       12.30297738056812
C           14.71648117888169       13.31195314749037       12.72625110326249
H           14.20853713630213       12.41088412197815       13.05346273206828
C            2.50288561774113       15.78656464257319        9.14261871302601
C            2.44807746221717       15.49317849799501       10.50519077559869
H            3.17149239785806       14.80826241696755       10.93248317934572
C            1.50171500770329       16.08825385369032       11.32418931811947
H            1.50479103363627       15.87281485735134       12.38657927728712
C            0.58373982117853       16.97652588208917       10.78410631728805
H           -0.15725880042883       17.44761405615039       11.41983158350259
C            0.62024579916319       17.27161620349732        9.42638015301397
H           -0.09343645129112       17.96971586490965        9.00301720645519
C            1.57456152266352       16.68720125694418        8.60924499402839
H            1.60436434747006       16.93501695223033        7.55365536750888
C            3.67318225114662       13.80396665174285        5.64225147083686
H            4.73863009821420       13.99765964418005        5.59725568464292
C            3.06652011772033       13.10863851130395        4.60944567007510
H            3.66225690557875       12.76807635599534        3.77019774427373
C            1.70502932991342       12.83904472416298        4.65329267755760
H            1.23209143880077       12.28865039975148        3.84788272602618
C            0.95251761379349       13.27242838496066        5.73616451351265
H           -0.11058609608515       13.06292496176088        5.77947166407212
C            1.55627044220358       13.97070191980870        6.77228559513047
H            0.95727447792134       14.29642945103243        7.61536732561079
C            2.92311655935953       14.25901666112237        6.73255551781940
C           13.79142406320631       14.11274270831304        6.26372891238735
C           13.08929710477033       13.15864837786909        5.52556409746018
H           12.60037275339188       12.34036944234058        6.04028818988113
C           12.98574583562061       13.25945263078870        4.14755302909207
H           12.40506079478326       12.52695552282701        3.59911576601367
C           13.59680534618085       14.31352848088722        3.48536748112801
H           13.51046315493896       14.40421818479885        2.40871075969099
C           14.31667162203976       15.25935134628072        4.20532969046953
H           14.79691040868119       16.08426571169458        3.69070483169948
C           14.41560466770045       15.16283176125952        5.58386694844920
H           14.97385988192054       15.91413630267536        6.13180047591327
C            9.71540770554202       15.85412585206643       15.35020775418529
C           10.51739246535073       16.38310089951403       16.36582788771304
H           11.29082325699982       17.10644254020259       16.13149718243656
C           10.33897995608246       15.97900541987260       17.67897349025520
H           10.97430974853010       16.38915530475792       18.45620111815536
C            9.36129960621781       15.04481447350983       17.99920091734451
H            9.23795051627891       14.72153370625041       19.02639989111737
C            8.55015542582723       14.52423234404832       17.00219988627852
H            7.79774184635313       13.78035011747089       17.23676511158921
C            8.72375418959606       14.93232846172593       15.68953269144848
H            8.09606819409640       14.51417392685429       14.91188421638711
C           11.42199776768068       17.59598346741879        9.33095504242167
C           12.36070601763485       18.23111243854939       10.14556887816675
H           13.35454164409846       17.81500658944193       10.26282625225864
C           12.04131604672434       19.41307999589926       10.79979107783629
H           12.78367227408559       19.89702558455734       11.42472963245273
C           10.78053863213313       19.97346237224624       10.65627774976788
H           10.53405498357573       20.89605946741593       11.16863017426804
C            9.83211551856697       19.34295443143876        9.86123888603448
H            8.84126602310179       19.76922782501605        9.75335348531253
C           10.15025295608557       18.16605330958454        9.20715290914427
H            9.40804425996792       17.67777108877544        8.58448957669762
C            9.46640756608299       18.03553269157857       13.50050982597853
C           10.25162030736867       19.08466262243599       13.98161062244355
H           11.21541971423970       18.88094176192547       14.43460645832878
C            9.80702124919233       20.39462989573039       13.88119215067525
H           10.42471892685607       21.20134472519638       14.25981835980688
C            8.57679809841800       20.67615856276302       13.29953024382633
H            8.23508167653096       21.70209401500394       13.22410826342808
C            7.78931830461585       19.64118049515431       12.81353483122465
H            6.82938447453343       19.85072362423432       12.35466069068551
C            8.23357144273573       18.33298839740718       12.91519189002734
H            7.61974421728367       17.52505282631323       12.53257903157979
C           11.42879894721962       16.36646541969167        6.77163801866037
C           11.85986710181386       17.56286498807684        6.19033821807267
H           12.37806129543688       18.30176046650947        6.79218194265210
C           11.62032487746885       17.80918656830794        4.84742236612594
H           11.95869162077091       18.73981569839910        4.40532633968846
C           10.94896564150449       16.87270132631673        4.06851969510986
H           10.76486435454857       17.07528099146341        3.01978112137051
C           10.51850289721986       15.68166352419254        4.63503240372178
H            9.99905304255114       14.93680090014646        4.04230637931179
C           10.75824211313329       15.43623181507675        5.97634234777501
H           10.42516898432809       14.50353075335266        6.41314710953560
C           13.49673054661593       15.66338368383522        8.68547055204442
H           13.76342284260211       15.67967422604975        9.74376492954063
H           14.07998646121089       16.42628596137596        8.16911783823492
C           15.55877412156952       13.61816285501276        8.47130673846338
C           15.88335456762808       12.31045072365539        8.83947636829170
H           15.09861341329805       11.56374834420605        8.89005061442424
C           17.18804093174500       11.95809083743488        9.14390514096781
H           17.41869591650327       10.93743746837478        9.42853412120651
C           18.19232662751492       12.91476546458975        9.08319698859369
H           19.21555888452257       12.64590304408773        9.31923048646049
C           17.88278863019866       14.22031507069442        8.72161109122939
H           18.66503614812471       14.96974304738936        8.67529833997001
C           16.57604462333261       14.57262559076482        8.41812828774382
H           16.34932554245146       15.59618415260521        8.14147263660346
C            4.53016844263142       15.37679508610601       13.08949883074337
N            3.68740785434683       16.04596743097355       13.50646361930221
N            6.69010832980157       15.17804381059390        4.87004033510358
C            8.13186400122474       11.72360879977880       15.04357723724176
C            7.18491080742634       14.55350742901650        5.70732790832957
N            8.14702027066931       11.47153290247255       16.17088134756699
