231
 energy: -339.779866382148 gnorm: 0.000742710067 xtb: 6.5.1 (579679a)
Au           5.57040769912109       12.87683690962598       16.67860404957525
Au           7.86087798877952       13.15335079807948       18.50777576303863
Au           6.15922964273474       11.19833769939640       20.37724818495817
Au           3.94668518935148       10.98553914408476       17.97837340840769
Au           6.92235101223312       13.29371619242085       13.93757589311074
Au           7.99864029949065       10.80242752787294       16.46494636518978
Au           5.46594980642695        8.29364651823752       17.48683797548107
Au           2.24779510210737        8.81345855906085       16.42689367784795
Au           1.73749573680359       11.06086673780039       13.64281852210887
Au           3.64789941112436       12.98434106130342       13.08322850841654
Au           2.82839434195005       12.84383979714491       16.15385973252376
Au           4.49846279936350       10.72324222809673       15.29607570400403
Au           6.41849989913075        8.86359621119727       14.68022461028146
Au           8.43025571909287        9.61092249459699       12.37999349038677
Au           5.62414468377960       10.81597755332328       12.68715871271438
Au           2.93845970754691       10.89180263137480       11.29393718099728
Au           3.80221722580199        8.70171674183980       13.62175731212126
Au           1.01985206602257        8.56971678576020       11.86887587150564
Au           0.06749317383678       12.03014291562967       11.23828075254008
Au           0.97864405581994       14.26489759941406       13.20934611109606
Au           6.26269825221758       10.79630983700823        9.91711022141680
C            6.91393134619282       16.12025170078821       17.19693004702215
C            6.60769464951598       16.96604373231701       15.96152326288815
H            6.27746101005787       17.96266039621675       16.25901613005099
H            5.82325395526350       16.49862768142763       15.36612643419563
H            7.49812614544585       17.06188783477177       15.34058687242249
C            8.06477338544932       16.74134676725201       17.98751747081842
H            8.96508716410806       16.78292733929364       17.37548075008759
H            8.27662833452793       16.14505399131125       18.87470385746450
H            7.80422454025876       17.75410851352693       18.29998335224955
C            5.67585906698647       16.00121478870826       18.07899622894033
H            5.35508368384984       16.98855034180466       18.41569180623193
H            5.88672175005661       15.38531396325528       18.95260059532989
H            4.86015787691623       15.54075697710206       17.52358958221469
C            8.51318922267406       13.24769925203270       21.80766131836195
C            7.34427973123142       14.22731505229263       21.78079743641041
H            7.44283794028364       14.95382134702939       22.58940596012790
H            6.39993705139547       13.69724210312441       21.90092903423102
H            7.31907699032095       14.76379858552516       20.83260469753155
C            9.83038016843228       13.99563465540144       21.60371060838148
H            9.99264215530746       14.70611028140812       22.41607738406730
H            9.81026294523661       14.54081290381294       20.66030806790437
H           10.66261440012373       13.29281848019377       21.58002047598803
C            8.53365367632134       12.49353269752573       23.13724386305115
H            7.59242578017570       11.96400059529212       23.28247143384106
H            9.34531432424305       11.76667978107414       23.14500800299724
H            8.67645679608607       13.18950780363101       23.96560206530344
C            2.84776416576743       11.45356208621144       21.13939047815149
C            3.12727986214480       12.90541246062143       20.76154798509179
H            2.43805100673333       13.56970610188166       21.28601530341919
H            3.00131296640109       13.05097353666207       19.68910290165131
H            4.14747555416404       13.18035379551097       21.02732315890969
C            3.02812282995095       11.25916842279464       22.64458388283298
H            2.31994031832290       11.88105408644480       23.19488872896429
H            4.04022112085395       11.53494049342188       22.93956217263455
H            2.86117488921369       10.21593737018343       22.91066615367706
C            1.42741318719807       11.07325811563540       20.72130769781166
H            1.23691924639831       10.02310438409708       20.94081464622813
H            1.29995695137615       11.23113687350767       19.65052011755198
H            0.69682986645111       11.68330339149319       21.25515313548459
C            5.61312512684499       15.51443090960845       11.74793731257712
C            6.25155789721204       14.47699041533848       10.83201545290960
H            6.41094576054970       14.89730375452390        9.83769598922229
H            5.60344668261848       13.60690162816239       10.74537007503603
H            7.21218368830918       14.14835410574326       11.22762023152618
C            4.30773107945395       16.02080010794328       11.13714573578713
H            4.50569147319781       16.53974272120151       10.19768669704113
H            3.81230468386420       16.70954402190070       11.82107165999292
H            3.63400962046749       15.18701950011796       10.93973891467261
C            6.57942187034082       16.67860603048791       11.97097659383023
H            7.50316594016165       16.31883402684298       12.42327623513578
H            6.13150876256921       17.41661504394543       12.63546627079731
H            6.81709995643902       17.15934799243837       11.02051166787248
C           10.25660866204692       12.42849359923467       14.30713541973828
C           10.33447426903643       13.28201736491183       13.04337693988732
H           10.06340927566282       12.69456725281402       12.16577360363470
H            9.64886696114184       14.12591324066548       13.11683584538172
H           11.34765322737499       13.66526241351982       12.91189046717927
C           11.26990390687732       11.28691308372925       14.24446952610426
H           12.28443817910334       11.68744189460743       14.21327869788807
H           11.10550866000740       10.68306714604353       13.35268286080798
H           11.17274496148427       10.64547132977676       15.11996659480060
C           10.50889657405281       13.28619047682459       15.54104453757859
H           10.46561078225134       12.67701511790455       16.44374804807166
H           11.49615477498548       13.74700288777714       15.47826736971386
H            9.75921835912888       14.07299125121909       15.62019078342062
C            8.61281788484035        8.38778716881741       18.76452817507488
C            8.85253819801148        7.38893281714597       17.63756633580074
H            7.95588572196568        6.79692372700896       17.45588877269766
H            9.66592924395824        6.71344219833364       17.90755367214360
H            9.11829702221418        7.90012090842531       16.71212970552709
C            9.87786495336603        9.20088745680458       19.02509584392136
H            9.69419870866532        9.96181153905734       19.78441529791100
H           10.20127476233859        9.69721992943452       18.11014533921863
H           10.67912088829171        8.54547830104762       19.36984482570526
C            8.17771347735830        7.65900747591879       20.03448382577705
H            8.95802822859666        6.96728902220685       20.35545422277970
H            7.26329783709548        7.09467583715044       19.85213947526110
H            7.99108111907976        8.37288888549924       20.83604706780670
C            3.03978248292943        6.11931707790501       18.30534004697022
C            2.68514319491789        7.09524782447832       19.42190191222278
H            1.89592605700741        7.77390955113784       19.09896437142688
H            3.54967599253542        7.69403352336959       19.70892614771563
H            2.33518905676592        6.54741502488258       20.29845555615973
C            4.14017600063560        5.16496993745185       18.76508113691752
H            5.01786484557688        5.72826003523063       19.08155556872697
H            4.42932760025622        4.50047678337524       17.95151873384636
H            3.78976600871072        4.56251038027089       19.60460518490121
C            1.80025949470461        5.33298589536131       17.87979950254593
H            1.42191392900429        4.74393776232392       18.71674549931948
H            2.04388301628121        4.65963039773445       17.05848762732323
H            1.01725881723681        6.01494274507428       17.54934881389865
C           -0.82063134986924       10.46602586504148       16.13439090492476
C           -1.25883915142086        9.23197999310469       15.35312122849166
H           -0.72547975972014        8.34804020036955       15.70289943826485
H           -1.05548200631040        9.36367412004587       14.29011154310377
H           -2.33026467788172        9.06784410418000       15.48188738812895
C           -1.12876728695672       10.30145516223747       17.62095792236711
H           -2.20380100610876       10.19282307714325       17.77433120061088
H           -0.78218440875564       11.17333995526489       18.17490586311133
H           -0.62737820297162        9.41756090150667       18.01477181351969
C           -1.49841243868238       11.71702063166143       15.57969350178392
H           -1.30701420122379       11.80338365699389       14.50997044055014
H           -1.11145575402672       12.61070253834687       16.07044753541447
H           -2.57676122672602       11.66417570813532       15.73824919202689
C            2.25478263969856        5.63759129181910       13.00038726444649
C            3.45770831834119        5.05952775561552       13.74439602634838
H            4.28634938971739        4.89608875494839       13.05612303496280
H            3.78342186578105        5.74572503956459       14.52689967524658
H            3.19281642546647        4.10758519449394       14.20807597393551
C            1.75330808550014        4.64011679938636       11.95469928115718
H            1.44896038856839        3.70909715718877       12.43585155199426
H            2.54269552970731        4.42346999501687       11.23588059595540
H            0.89977977545146        5.05412847683003       11.41863935398041
C            1.13681405106089        5.96683528905126       13.98356228103929
H            0.26047797169874        6.34291213922221       13.45640553263776
H            1.46483793199008        6.72638398884217       14.69151710807438
H            0.85111241646762        5.07311935113204       14.54135466647277
C           -1.83212926061563        9.38795012075308       10.24514021030129
C           -2.31990657338216        7.96731522258780       10.52282522187823
H           -2.94957836315207        7.61737646538035        9.70320101955265
H           -2.89745193804631        7.94084291406655       11.44627449218922
H           -1.47141813264656        7.29130557436885       10.62514559130272
C           -3.02131596946625       10.33419077033388       10.08917645537645
H           -2.67245780743664       11.34716676869482        9.88928222209850
H           -3.65430887893213       10.01169620864183        9.26086720948525
H           -3.61560506566961       10.34613242556304       11.00224629833697
C           -0.96634701484378        9.41578056554491        8.99018133396044
H           -1.53788739069482        9.06383030062475        8.12964466266005
H           -0.09284645968627        8.77656081297309        9.11560285842964
H           -0.62561247533062       10.43111554660065        8.79019294322548
C           -0.07314441791010       15.24949576654210       10.07909043275763
C           -1.43682757588711       15.20451604426881       10.76010463005817
H           -2.12256169865867       15.90071321540609       10.27401169640618
H           -1.34605253082246       15.47954208773506       11.81060018815687
H           -1.85848122982830       14.20129244857014       10.70136123234121
C           -0.19788235867503       14.83387871095309        8.61364872334967
H           -0.84345200406486       15.53043293442555        8.07610854784082
H           -0.62400298876412       13.83341946974261        8.54161470525354
H            0.78317850974041       14.82724524634096        8.13930952913706
C            0.52482133378276       16.65181917287724       10.18543135777789
H            1.50923514155986       16.67825322484935        9.71921013006303
H            0.62843406463468       16.93811637132053       11.23173501970059
H           -0.11970369055961       17.37640349355857        9.68495010513374
C            1.44823744127591       16.03893829102168       16.02852087818147
C            2.72342808252250       16.47993062780966       15.31674081518293
H            2.56661189575439       16.51974964983204       14.23893273502384
H            3.53209423450916       15.77690093561558       15.51265489369059
H            3.02745444517411       17.46976022439895       15.66175328237199
C            1.66093419650011       16.03811463204213       17.54165338547785
H            1.90145468913964       17.04296242021987       17.89274268809604
H            2.48134203835834       15.37027115912768       17.80377348159907
H            0.76065130333837       15.69297929628401       18.04918615464102
C            0.29163667330916       16.96753003956416       15.65990623065930
H            0.50626899853924       17.98709749474457       15.98472377312497
H           -0.62769840989252       16.63130823811536       16.13824158356791
H            0.14032650627418       16.96846289708774       14.58058913938277
C            8.19221475369474        6.30759169314368       13.25527926437063
C            7.09630332759494        6.42530815789886       12.20043814872582
H            6.88928437628999        5.44658588937071       11.76392873948815
H            7.40050225312567        7.10392017805726       11.40428216519945
H            6.17842058560596        6.80779049375336       12.64463782933281
C            9.48100526236995        5.79110870148158       12.61458457634174
H            9.79995909039214        6.46509118945074       11.81976332439465
H            9.32361320423211        4.79772760790986       12.19094930312096
H           10.27352741075343        5.73493706195405       13.36008375329194
C            7.73770252714490        5.36273005511094       14.36824289848703
H            8.49754688150786        5.30198225418223       15.14687112105781
H            6.81299746268620        5.72885656653357       14.81421794079213
H            7.56241260501142        4.36206859415457       13.96939993281333
C            9.49227790311241       10.45402634208298        9.28705417754465
C            9.36677450436256       11.33992437506943        8.04800204816726
H           10.03397628793689       10.98561740259022        7.26046140389407
H            9.62706599936137       12.36923273895378        8.29266881331312
H            8.34295074778487       11.32108710508311        7.67507376919266
C           10.93281855437557       10.46264076463894        9.79687394937139
H           11.02251201098586        9.82981685554575       10.67930477382053
H           11.23254948936823       11.47535234501399       10.06491772657532
H           11.60895489399439       10.08831664794758        9.02644759209046
C            9.06115752887379        9.02807681840232        8.95948560273986
H            9.70146724643308        8.61222533002344        8.17965873529017
H            8.02956891498409        9.01241572113048        8.60870174922018
H            9.13337674048966        8.39554727450251        9.84350808069054
C            3.60085841085243       11.49149207886427        7.96325599517881
C            3.75672155349704       12.92953605587923        8.44646512355093
H            3.42031990581196       13.62362513234602        7.67392025400458
H            4.80108254541036       13.14068882868396        8.67139304856380
H            3.16384340249027       13.10060585793359        9.34531957113002
C            2.13585507654135       11.20790917912296        7.63623286815211
H            2.00552159469409       10.16384076520997        7.35361690881024
H            1.51507248697562       11.41186179923939        8.50804744345993
H            1.80030457668039       11.84183115388633        6.81386558496645
C            4.47063942811813       11.25341415793737        6.72923720140390
H            5.51507142416169       11.46273101706370        6.95990561268031
H            4.15468218252563       11.90435422240586        5.91221107357705
H            4.38855159009492       10.21651368865147        6.40523476861435
S            7.46289875749214       14.49525396867057       16.58994089746376
S            8.39691517909938       11.99298697919527       20.49907183676630
S            3.96739043431923       10.28796764250352       20.31324951767922
S            5.22841337784419       14.84444276282257       13.38988126455788
S            8.60969547489171       11.65929129890681       14.34597613603017
S            7.27668307052185        9.55025204963082       18.34779332691855
S            3.65065252028865        6.95970475827932       16.81415369768155
S            0.97103577484639       10.72892565958342       15.97546149406378
S            2.82586411525347        7.09012925101450       12.07147145520714
S           -0.91140458350178        9.92998036067565       11.71331180774816
S            1.11348156497845       14.10975633664271       10.84893374948130
S            0.96395992067400       14.35437014335082       15.56831125123249
S            8.59665881874904        7.89498270605910       14.03856561056739
S            8.47098557272467       11.20706738326095       10.58718511434749
S            4.09353908095384       10.27666150937645        9.21833544997504
