335
 energy: -492.059176918564 gnorm: 0.000047337407 xtb: 6.5.1 (579679a)
Au           5.81378340124448       14.77021015591197        0.74675022280010
Au           3.60271529763366       16.21977020389948       -0.70268959695495
Au           0.90270222477565       15.85918054220167       -0.00001913241120
Au           0.19007170074290       15.98903073094097        2.59563318976864
Au           0.16062764975619       13.46227240239212        0.97865611962750
Au           2.21859653638381       13.20215626948345        3.19113564372682
Au           5.10259611426212       13.59403406808142        3.99343441318311
Au           3.23613677467156       15.53548509801874        2.41075503387192
Au          -1.28720238329438       18.26047307101237       -0.50779364612249
Au           1.36225447677550       18.77044755565931        1.97938443060826
Au           2.29419475715978       15.33167179385576        5.44413385549603
S            6.00421033299758       16.79431575942705       -0.44063870774296
S            5.60252000771586       12.67833503280219        1.88290110489370
S            4.39017998529257       14.43543897616822        6.07614436171468
S            0.11141073500387       16.09488135260804        5.04052208588516
S            3.54550164756679       18.00162991101813        2.37357638465684
S           -0.80776898706645       19.56422018103409        1.56262634278191
P           -0.89211431327936       11.52099456890047        1.88915891775025
P            1.18012969035684       11.22850921787149        4.10053018970394
C            0.17623623467741       10.32583270938011        2.82090668357557
H           -0.40216241599389        9.51075870611609        3.25743458238126
H            0.88115248007874        9.89224100389444        2.10878016059397
C            6.79461165692121       16.29475277625328       -1.98551465202599
H            6.86648996845379       17.21584643836408       -2.57582184606414
C            8.19936332523168       15.77047028897718       -1.69567849424858
H            8.12389243221172       14.89092610193424       -1.04661879152935
H            8.76948305914706       16.53240799039203       -1.15790960560615
C            8.91765985587569       15.39317012144858       -2.99321753384364
H            9.90831347559133       14.99502210674587       -2.75668958062218
H            9.05271580855431       16.28786133777140       -3.61028014998257
C            8.11090788240053       14.35047232478993       -3.76876197074328
H            8.03857923698809       13.42982575840100       -3.17945887229184
H            8.62028573290024       14.11135985434107       -4.70640350592688
C            6.70678281746113       14.87802757957199       -4.06622498576736
H            6.77300867979479       15.75320091983537       -4.72138964292832
H            6.12488842101277       14.11270672194064       -4.58775401425281
C            5.98966679376537       15.26396887897738       -2.77166657341198
H            5.83762298372679       14.37327684911176       -2.15323973980417
H            5.00444734751369       15.67675287082277       -3.00725220408057
C            7.21965962993453       11.87252062455793        1.75617571750355
H            7.12597703658279       10.93739998958660        2.31800514394111
C            7.49734800476707       11.56920928549292        0.28020778648082
H            7.07338954049279       12.36418120302925       -0.34089101837907
H            6.99345374019856       10.63730924210634        0.00742632339185
C            9.00336885316814       11.46615863454153       -0.00549423120862
H            9.16466225381251       10.80044643726039       -0.85737369642578
H            9.39577938701127       12.45168328023219       -0.27664190525841
C            9.75611547204595       10.94172953113585        1.21698301040416
H           10.80734551898322       10.78260924757677        0.96305740013796
H            9.33618801219743        9.97393806653735        1.51009933723760
C            9.65570008446310       11.93220405835820        2.38649452885828
H           10.48536719373798       12.64343678190764        2.34358500880157
H            9.73876604636772       11.38387977718867        3.32926568656485
C            8.33385137968054       12.71557828321166        2.36166007875807
H            8.06120802684795       13.01268252590478        3.37829343262513
H            8.44498641295693       13.63178242927062        1.77184573910920
C            3.89108607710955       12.91807994993144        6.93842824779238
H            3.18150429799455       12.36332525702482        6.31540823869233
C            3.21934169197216       13.29849363862419        8.25392717891262
H            2.33090284972893       13.90170464782891        8.04691287787711
H            3.90567050460064       13.90761338543986        8.84977379167568
C            2.82309635960154       12.03869804886556        9.02793736599732
H            2.36008888173783       12.32499810078990        9.97623151712637
H            2.08323528230732       11.47451494522319        8.44878148051149
C            4.04998534745521       11.16402861618995        9.29107085795397
H            4.75165738504487       11.70287281850205        9.93600174830071
H            3.74609571767331       10.25170524184138        9.81190398963785
C            4.73933699825842       10.79662597815767        7.97605882552848
H            4.06559056049076       10.18070304868997        7.37089058540693
H            5.63870970068921       10.20883846775321        8.17942030023747
C            5.12169324019784       12.05235585686857        7.18792521302999
H            5.86869817126078       12.63151596797023        7.73893964458910
H            5.56079616609691       11.76499802884123        6.22774860501898
C            0.07225982299433       17.88330168524466        5.31606797479816
H            0.82697569671109       18.36359680853037        4.68312316146334
C           -1.31027189369031       18.38455856986243        4.90980264650612
H           -2.07230320952160       17.84556500856785        5.48125198534614
H           -1.47403243896817       18.17653250169489        3.84834209487227
C           -1.43210716771731       19.88943445144293        5.15651044003977
H           -2.44233936784452       20.21771432347633        4.89631073478563
H           -0.73034129473769       20.41878001935503        4.50249249426096
C           -1.13440114750149       20.22504002578902        6.61830900924721
H           -1.17997489576372       21.30805148059077        6.76320768632205
H           -1.89361182573950       19.76684209790696        7.26084607505248
C            0.25060538696218       19.71264837504277        7.01724885794288
H            0.43636755904721       19.92734107443707        8.07315516855565
H            1.01501222208348       20.23160795272504        6.42871101683109
C            0.36377282259170       18.20417670370696        6.77696169377838
H            1.37211458514224       17.86280196559848        7.02921988641230
H           -0.34322279299602       17.66648241156517        7.41640807556340
C            3.90544735766016       18.31057690364824        4.11848200113227
H            3.20628578836822       17.73480288169746        4.73794228957059
C            3.76078672745650       19.79018891640744        4.45045297253879
H            4.40743394989656       20.37794375912068        3.79138084587016
H            2.72799458868207       20.10379310286683        4.27115911710797
C            4.13245052181261       20.03865572267089        5.91503866477649
H            4.05520655414268       21.10725028584368        6.13369760780477
H            3.42375159569070       19.51045772532029        6.56204270975989
C            5.55183979378923       19.54912889260417        6.20842285739536
H            5.77869553165688       19.69926809353603        7.26755371833504
H            6.26908097746157       20.13489331217298        5.62381358039774
C            5.69671064583535       18.06741577271968        5.85689191890172
H            6.72679347114842       17.74366070499599        6.02923099449147
H            5.04393508906958       17.46588556192968        6.49925226630331
C            5.32486757862483       17.82587275418476        4.39285204355850
H            5.39182561895324       16.75769170688054        4.16560659967678
H            6.02121524846904       18.35206425784009        3.73239393738408
C           -0.53285288821462       21.18482113076134        0.80136218062504
H            0.17675810755410       21.07908690623989       -0.02661851855649
C            0.04279787234308       22.15002300157643        1.83221980072373
H           -0.62492844580697       22.19818154895774        2.69787976959485
H            1.01143591060256       21.77552927812011        2.17643058007676
C            0.21254715410943       23.54282828528337        1.21986065838937
H            0.59213602210665       24.23129659386717        1.97986688318057
H            0.95138448765014       23.49424291388352        0.41208576809749
C           -1.11595576100472       24.06112017619148        0.66599401830114
H           -0.96201814743127       25.03734373322850        0.19762334375976
H           -1.82941959535941       24.18957051760993        1.48644808895758
C           -1.69011711680635       23.08286083612953       -0.36028044671892
H           -1.01597784131726       23.01541849154231       -1.22248581256142
H           -2.65707860654062       23.44529979683374       -0.72078307573966
C           -1.86375475136380       21.69389158540990        0.25755839770509
H           -2.23647961482580       20.99548439923509       -0.49773467338547
H           -2.59771511540995       21.73050282450328        1.06841742631220
C           -2.12801868054236       12.07827078667967        3.10191581048102
C           -1.80202604037180       13.17575110808948        3.90244305695226
H           -0.81935112491516       13.62270126294261        3.81793100669318
C           -2.71207193363307       13.70545947381392        4.80009944749836
H           -2.42497484303170       14.55611328971347        5.40859676251506
C           -3.97934976341722       13.14685187329062        4.90445767529168
H           -4.70073280305874       13.55919090918315        5.60013834448736
C           -4.32046758527549       12.05833448159647        4.11213423641611
H           -5.30948125496233       11.62141103336943        4.18906326922426
C           -3.40444609502369       11.52425062237884        3.21737984852366
H           -3.68504693682219       10.67771527881178        2.60123080737847
C           -1.84551584189252       10.54717839570703        0.69230473708487
C           -2.72666099583278       11.26606343032888       -0.12538543412007
H           -2.85872362901872       12.33273114279706        0.02864193278394
C           -3.42611508624434       10.63227823980182       -1.13753297891246
H           -4.10674692177996       11.20394212860658       -1.75794444462681
C           -3.24402602060612        9.27345121037533       -1.36216069650797
H           -3.78202186873098        8.77807866127753       -2.16192865959564
C           -2.36896349259204        8.55220260895008       -0.56209374665027
H           -2.22369188882962        7.49176562242908       -0.73379684611382
C           -1.67338058474431        9.18161740852279        0.46032954015682
H           -0.99757599945442        8.60400018860914        1.08054179053788
C            0.08795283858014       11.30600448760423        5.55564433622359
C            0.16292776337236       12.44919473338236        6.35396899754407
H            0.84777141561877       13.24376808011189        6.07841748132217
C           -0.63880296926425       12.59622220149159        7.47371777026367
H           -0.56638183087286       13.49538940478838        8.07435134723767
C           -1.53890207086077       11.59564622276349        7.81272670767495
H           -2.17410671808992       11.70710387321336        8.68357374227913
C           -1.62780715524904       10.45354957589768        7.02830594845785
H           -2.33174047675865        9.67086232264651        7.28685707718906
C           -0.82198066081839       10.30531545537030        5.90990219976175
H           -0.91265606253412        9.40806938034703        5.30850373058110
C            2.43974009835993        9.97744590703397        4.51473594382019
C            3.60237221175910        9.97914824423483        3.73791643291543
H            3.70903021711515       10.70400330992534        2.93836826055432
C            4.62380332214578        9.07788941474206        3.98713894157937
H            5.51938757721158        9.09666192736361        3.37629779947113
C            4.50035896595154        8.16090981532346        5.02250036723343
H            5.29917556931855        7.45670812534389        5.22332054919745
C            3.35458492527446        8.15501028925226        5.80686873370404
H            3.25645736701686        7.44464315987703        6.61961873661736
C            2.33044214253362        9.05818630731625        5.55905822538316
H            1.44633974701148        9.04975384347982        6.18616309566686
Au          -4.00945670004836       16.94873611488269       -0.74618791160028
Au          -1.79745544704236       15.49848120182294        0.70274376556965
Au           1.61548690002075       15.72913787304949       -2.59565201579252
Au           1.64516176610359       18.25579782318961       -0.97890179066815
Au          -0.41245327806405       18.51534282816488       -3.19061045598395
Au          -3.29711040669806       18.12423859200302       -3.99337125257121
Au          -1.43108572773461       16.18248446176652       -2.41087057334088
Au           3.09259817629129       13.45744702070876        0.50777326465682
Au           0.44327274049860       12.94755042343610       -1.97923445856227
Au          -0.48853079735344       16.38643203787021       -5.44380925125867
S           -4.19914628728987       14.92464967669662        0.44116192032141
S           -3.79727910268781       19.04005407310402       -1.88291042148410
S           -2.58442252741069       17.28270311350169       -6.07587344068896
S            1.69431475600113       15.62316102467846       -5.04047742590614
S           -1.74002684968174       13.71624282841154       -2.37362291093129
S            2.61328737095260       12.15374112209059       -1.56262225156158
P            2.69809187738892       20.19708144790084       -1.88908058588575
P            0.62588960604062       20.48900910731302       -4.10039501745176
C            1.62964749592207       21.39206792184074       -2.82092783992134
H            2.20794769720680       22.20715078834535       -3.25756450249021
H            0.92467411219854       21.82565791323517       -2.10885694854216
C           -4.98902310562562       15.42401727541693        1.98635989212911
H           -5.06051780441725       14.50290539642643        2.57668457639380
C           -6.39397160092204       15.94806248545603        1.69705226689460
H           -6.31887696283373       16.82767719362940        1.04804297191852
H           -6.96414041087972       15.18606786648642        1.15941668179485
C           -7.11187372496680       16.32512027317854        2.99487894519699
H           -8.10269637638683       16.72308064007040        2.75874508820516
H           -7.24651871916002       15.43035627733305        3.61192613959718
C           -6.30504981839772       17.36793008112388        3.77019845852192
H           -6.23315026743153       18.28863987767270        3.18094270505708
H           -6.81411769851118       17.60685373836034        4.70805644978232
C           -4.90069197365468       16.84066247787171        4.06708088765557
H           -4.96646817875024       15.96543957583901        4.72222528769863
H           -4.31877390152456       17.60608745012939        4.58842834266062
C           -4.18398804352278       16.45494629379648        2.77222607188212
H           -4.03238971613834       17.34569389921980        2.15376734973470
H           -3.19858080179904       16.04237862335253        3.00740584867140
C           -5.41416852861407       19.84646170707224       -1.75689927148834
H           -5.31997720036399       20.78141067171041       -2.31893000953767
C           -5.69225430742341       20.15025138824443       -0.28110662796219
H           -5.26878158097408       19.35529540778463        0.34034310496875
H           -5.18812699224058       21.08204727748923       -0.00839699955989
C           -7.19833791804009       20.25390644031986        0.00405723097187
H           -7.35968306827505       20.91992066585028        0.85569069405472
H           -7.59118623414151       19.26859868213500        0.27535617349122
C           -7.95050358669530       20.77826550374057       -1.21880916598234
H           -9.00176904035590       20.93777909950728       -0.96527525261022
H           -7.53017455814692       21.74585362834516       -1.51202071650622
C           -7.85001070134603       19.78747953726023       -2.38805064104893
H           -8.67994728730066       19.07655299098843       -2.34528092289497
H           -7.93252982115777       20.33561403446276       -3.33098055222890
C           -6.52844944605023       19.00364617592606       -2.36255425078745
H           -6.25555152166615       18.70619500856909       -3.37901849417012
H           -6.64010844382058       18.08762936621491       -1.77254946630632
C           -2.08526456396859       18.79999573986949       -6.93823535582959
H           -1.37575710749961       19.35482017023207       -6.31519110669811
C           -1.41338132053224       18.41945909677325       -8.25362952789066
H           -0.52492000699051       17.81633844220430       -8.04645192389855
H           -2.09961375432401       17.81020003949291       -8.84944422356536
C           -1.01715635155014       19.67915616853797       -9.02780905656521
H           -0.55405636153600       19.39273249758915       -9.97602096188120
H           -0.27737858004895       20.24348384495816       -8.44868755744417
C           -2.24408753579627       20.55369443353698       -9.29117525891887
H           -2.94568696790287       20.01468642797373       -9.93604790157791
H           -1.94023161058951       21.46594529644200       -9.81215485128130
C           -2.93352519887712       20.92128067248820       -7.97626199544687
H           -2.25982752467686       21.53732217225108       -7.37116428147367
H           -3.83290734170971       21.50900661993392       -8.17975935347713
C           -3.31587071392843       19.66566526374638       -7.18794018775159
H           -4.06283651943662       19.08639979575115       -7.73889657111469
H           -3.75502729932266       19.95316486820278       -6.22783022359356
C            1.73357723919700       13.83474034196175       -5.31601007549283
H            0.97885158645242       13.35440189832246       -4.68311144670574
C            3.11612216889658       13.33358056794611       -4.90965629745369
H            3.87815738685738       13.87266738794176       -5.48101344136348
H            3.27977584481234       13.54157476346718       -3.84817251704650
C            3.23811566523498       11.82872540985896       -5.15641445970706
H            4.24836394949504       11.50053326372324       -4.89616655413673
H            2.53636079452300       11.29928962331991       -4.50245830307593
C            2.94052743687412       11.49314741966687       -6.61824309557967
H            2.98623158485134       10.41014743961356       -6.76318529162946
H            3.69972085655303       11.95145922599361       -7.26071938613066
C            1.55548637413993       12.00540570817809       -7.01723103616792
H            1.36978403280399       11.79070933011993       -8.07314689474880
H            0.79110668746403       11.48636573908553       -6.42872832317075
C            1.44216626536485       13.51386272480726       -6.77692470182714
H            0.43380506585787       13.85514813845980       -7.02922491655000
H            2.14914296468374       14.05163555441344       -7.41632616313453
C           -2.09972917092057       13.40719362621971       -4.11856679171008
H           -1.40048434156359       13.98293719643962       -4.73796091192166
C           -1.95500586886302       11.92755871900414       -4.45041448432318
H           -2.60174893308838       11.33984442664997       -3.79139920758642
H           -0.92223760594412       11.61397430628587       -4.27094748212810
C           -2.32645484971726       11.67898287223895       -5.91503647335161
H           -2.24916695389034       10.61037266658489       -6.13360418295151
H           -1.61766968903860       12.20713803365987       -6.56198086298760
C           -3.74580844141091       12.16846826902332       -6.20866284953098
H           -3.97250314500222       12.01826090617606       -7.26781883212715
H           -4.46312813735896       11.58272886863815       -5.62412509507980
C           -3.89075606047944       13.65020184367667       -5.85725003140083
H           -4.92082327540684       13.97392279398441       -6.02974854355518
H           -3.23790782734041       14.25169802453373       -6.49956775971186
C           -3.51911803054108       13.89185992772456       -4.39317567226601
H           -3.58612031182536       14.96005738606673       -4.16602450704564
H           -4.21555515892821       13.36571052485060       -3.73277845352451
C            2.33836976987084       10.53313053068748       -0.80138813896959
H            1.62868184958657       10.63884306725556        0.02652838558603
C            1.76282871956165        9.56792933391251       -1.83230713899074
H            2.43061453712450        9.51982455468776       -2.69792379382266
H            0.79420039002214        9.94240001817493       -2.17657062745974
C            1.59308584721826        8.17510277391463       -1.21999669549672
H            1.21359502127942        7.48663602749660       -1.98005278872546
H            0.85417285105812        8.22363938732584       -0.41228846004939
C            2.92155750719495        7.65685433039983       -0.66601546322587
H            2.76761671294882        6.68061395389406       -0.19768172199394
H            3.63510823894564        7.52845668196161       -1.48640166544291
C            3.49557235296682        8.63511287572930        0.36033978536366
H            2.82132591168641        8.70252028780359        1.22246388466855
H            4.46250023836717        8.27269838676043        0.72095644429587
C            3.66923327289446       10.02409413175958       -0.25746145385001
H            4.04185954020896       10.72250296742665        0.49787835069775
H            4.40327817191038        9.98751949982808       -1.06824541143941
C            3.93407048014084       19.63984731256163       -3.10177817480798
C            3.60821212402999       18.54230368839361       -3.90227657561664
H            2.62558472631278       18.09524909558011       -3.81777180295649
C            4.51833893971062       18.01266268895757       -4.79988963569871
H            4.23135775570721       17.16196225530817       -5.40837538832537
C            5.78556483555348       18.57139741617877       -4.90422998693714
H            6.50700374396303       18.15910197862555       -5.59987836304946
C            6.12654864885284       19.65997420250353       -4.11193452928904
H            7.11551592801118       20.09700509908651       -4.18884486936414
C            5.21044364264974       20.19399272461377       -3.21722504817114
H            5.49093986062832       21.04057965840098       -2.60109936441482
C            3.65139650669951       21.17094701649289       -0.69218923364952
C            4.53250571012296       20.45210289277899        0.12557859163753
H            4.66462962380114       19.38543631387543       -0.02841791038464
C            5.23186214025670       21.08593651481498        1.13776317867818
H            5.91247901721394       20.51431609890585        1.75823222713981
C            5.04971362283538       22.44476368476950        1.36235001010919
H            5.58763369824543       22.94016318560516        2.16215242380439
C            4.17469185937977       23.16596874138747        0.56219988613866
H            4.02937754026044       24.22640728951714        0.73385633840189
C            3.47920367123979       22.53650722627048       -0.46026027514964
H            2.80343045798728       23.11408615547025       -1.08054286539348
C            1.71798381318565       20.41156583523862       -5.55558654849946
C            1.64291673344696       19.26841562720339       -6.35395546021008
H            0.95811571267797       18.47382304837537       -6.07835570930317
C            2.44448387748380       19.12145064885995       -7.47383204495899
H            2.37195954809151       18.22231808487442       -8.07450527893191
C            3.34452486279644       20.12204994983467       -7.81291651447566
H            3.97960470513346       20.01065933193892       -8.68386334054018
C            3.43353956684447       21.26410099545064       -7.02843793784830
H            4.13743652814611       22.04679974431328       -7.28705430878443
C            2.62786755393557       21.41227700752199       -5.90991687492484
H            2.71861678955247       22.30949607826117       -5.30849032643950
C           -0.63393332924684       21.73981802612471       -4.51476919057636
C           -1.79660554476279       21.73801343589555       -3.73801720580355
H           -1.90323151645056       21.01319977816553       -2.93842882209796
C           -2.81812810030707       22.63915012045539       -3.98732662956419
H           -3.71374728366410       22.62028018174725       -3.37653878484831
C           -2.69471723157182       23.55613492853400       -5.02268308623317
H           -3.49358491485604       24.26026525434925       -5.22354934203971
C           -1.54890455745071       23.56212609332592       -5.80699895985644
H           -1.45082509612913       24.27248333352993       -6.61976405460597
C           -0.52469049052784       22.65905147416849       -5.55912525857765
H            0.35942467998134       22.66752540946347       -6.18621242953047
