202
 energy: -409.912510763476 gnorm: 0.000563366226 xtb: 6.5.1 (579679a)
Au           2.93275316499440        9.14476764045865       13.37949300365234
Au           3.03047432821395        8.69789156470650       16.96412915943439
Au           5.66022614786843        8.26293203350544       14.27914352803380
Au           5.81130727336002        6.98167340404916       20.46951027086532
Au           5.21776430459574       11.09381937676443       13.04097785057343
Au           6.11006327470951        5.51712545715322       14.56714613054268
Au           5.43774120427086        6.98906078037509       16.82615843506723
Au           3.33074207952107        6.62722427300916       14.84503871668904
Au           6.50982338182837        3.02985852231674       12.95269627738991
Au           2.50228127315834       11.85769839373272       12.46022073978100
Au           3.32816222000239        6.62526235338167       11.93839107861580
Au           3.33288203972016        6.63190772670546       18.89252755599614
Au           3.33257190341395        6.63538688499040       21.81872012778477
S            7.13794610503536        9.83872322038916       11.09294451357784
S            1.26398451824524       11.89389842579229       22.69989450168982
S            7.17559107568869        9.46214704886468       19.69916347668931
S           -1.36851914309022       15.47981002226951       16.80001060785234
S            6.06345790661152       11.35195668367888       25.75703780593560
S            8.34915597653893        2.71700695492635       15.36631135663546
S            4.69626540080597       13.04035694269467        6.34965362718413
S            1.05346480667713       10.92983397072093        7.20384940010263
C            7.04773538958749        4.85313846319033       12.31794391649290
C            7.05808569553786        5.96303175646865       11.81438011604036
C            6.97817205945296        7.27790137556257       11.30266979681982
C            6.14190730571404        7.64753258199385       10.20067682638951
H            5.59529327726147        6.92855595051617        9.60884339624112
C            6.13304298553029        8.98564542128148        9.98914560877756
H            5.58534843556517        9.52934212092148        9.23810725678201
C            7.57623946717218        8.37305018970841       11.87620159926283
H            8.29143252507031        8.37570065850986       12.68017748461153
C            2.97788886418627        8.64875358820793       19.12211880687602
C            2.67427438866370        9.59173657425301       19.83595732261942
C            2.29953677878569       10.62947612175934       20.71497868456506
C            2.62070054454788       12.01029503178785       20.52276183824002
H            3.18096537354997       12.37504362645992       19.67476243655683
C            2.12354531540497       12.79385003057418       21.51239495981873
H            2.21572641964809       13.86315271209127       21.60843904674634
C            1.56532906178586       10.43513751140727       21.85812500181630
H            1.19810407856044        9.49587864509152       22.23617487254113
C            2.86071257936906       10.02138056648372       15.26353839710204
C            2.79791798074737       11.13034377669640       15.80095005735325
C            2.79094310368450       12.41738127817722       16.36591462641920
C            1.78952261299860       12.90901452454482       17.26310159267439
H            0.93875409844984       12.32350130099407       17.57868892352166
S            3.47918295326025       14.82049078044916       16.97011773501642
C            2.04004880050532       14.17966677211384       17.66288177715720
H            1.44445083332806       14.78506978476024       18.32628901766262
C            3.76864405521836       13.35786055161465       16.13569985567677
H            4.63204923647487       13.24311083888693       15.50244285550564
C            6.10234857791985       10.60299930784863       14.79325281519840
C            6.29785052944959       10.50241136339030       15.99500718903303
C            6.45994271742447       10.34153875884666       17.39002212839108
C            5.67256595338073       11.04759999634153       18.35643090220902
H            4.94501205333802       11.79774822757479       18.08366363733987
C            5.95185385048647       10.66820151282326       19.62562968451811
H            5.50637713343411       11.03278417544488       20.53558880237006
C            7.30922972324836        9.44412139773918       17.98804767395223
H            8.02907035761027        8.80709538494921       17.50376141658942
C            0.68514549907292       12.16211940926209       13.45288752372181
C            0.28592002880333       13.10022156046728       14.13112675225001
C           -0.17177856640216       14.15435534143261       14.94910362339528
C            0.29552076627616       15.50280089902991       14.84436991695786
H            1.01821132552746       15.82033282906937       14.10688320757763
C           -0.26388262907449       16.31220514875369       15.77702341678565
H           -0.08572043689054       17.36513902400195       15.92118766009547
C           -1.07925490780928       14.01101042120925       15.96822582364743
H           -1.58468214750367       13.10366609525121       16.25629131091966
C            4.93121416124692        7.97532745226036       22.04735754988510
C            5.10429578886912        8.90753017580081       22.82209955758198
C            5.33504588158006        9.98020383406377       23.70556635461957
C            4.97244059321773       11.33867962480323       23.43374610624958
H            4.48557700685046       11.64972157349481       22.52113115064462
C            5.30613215684935       12.17263928288881       24.44826935184959
H            5.14623542895387       13.23706345032553       24.50070181215911
C            5.93498662321959        9.85691195983030       24.93554200445821
H            6.30348372372597        8.95006466437512       25.38525027325425
C            6.76683299325231        5.99542130270923       19.01073937685857
C            7.29972958895515        5.32126993122869       18.14492992386880
C            7.92561144427236        4.52717795224966       17.15086133467922
C            9.23270998349147        4.77414420466357       16.62195782912703
H            9.86006144607676        5.58515730345228       16.96187369457693
C            9.57924216770171        3.88469221622845       15.66111176457240
H           10.49864650465041        3.84602763823759       15.10082490679776
C            7.33247888030889        3.44842125680499       16.54390787039564
H            6.36774736404312        3.02799962478524       16.76671209148345
C            4.27130404834472       11.86540351435049       11.35082591721185
C            4.51873439458745       12.13817938401796       10.18351060163287
C            4.84844925412278       12.40314094076158        8.83671018862955
C            6.14719123171461       12.17001653815560        8.28034004341712
H            6.98104704825861       11.80351093436208        8.86174222041640
C            6.19915482938236       12.46908617567017        6.95894796517438
H            7.04991207462475       12.38593284580076        6.30282247548992
C            3.97420855177345       12.88166634789307        7.89516830873071
H            2.93668347567989       13.13147985202301        8.04239309111028
C            2.89317942239135        8.57798124877905       11.37219674737817
C            2.61551573450842        9.01209045241208       10.26206729669264
C            2.27303510642288        9.57551231549645        9.01759068107311
C            3.01452263204388        9.38613046041492        7.80810050417257
H            3.89877785141042        8.76894743047825        7.74616868317803
C            2.46884598741212       10.05575324261216        6.76373413337216
H            2.82732348205600       10.08968229255234        5.74817647890615
C            1.18222874563676       10.38592931360244        8.82089527718651
H            0.46158846332924       10.68720727703180        9.56243604564127
Au           3.72589771421921        4.10893235220878       13.38325008495624
Au           3.63364924071387        4.56008129381886       16.96834352718517
Au           0.99888012041257        4.99265523621245       14.28267816602528
Au           0.85206918213130        6.28667719246920       20.46886278869061
Au           1.44205302713956        2.15767133874536       13.04446750738702
Au           0.54866713586959        7.73805755178778       14.56894474491306
Au           1.22450164432923        6.27013303785716       16.82860683306833
Au           0.14936967741580       10.22165500802813       12.94971498648235
Au           4.15715994598198        1.39454030997543       12.46808573282722
S           -0.47681496417733        3.41119995260748       11.09473226130333
S            5.38395548042936        1.38143529638842       22.72108179527307
S           -0.50743784121167        3.80312660959558       19.70093367783046
S            8.04854758156092       -2.21424323587756       16.80754780665457
S            0.58527331651196        1.93221449726875       25.76449642868435
S           -1.68981757438473       10.54447128323902       15.36214940509759
S            1.96790909162632        0.19745068424339        6.35746610374774
S            5.61170879258930        2.31093864826993        7.21501851189505
C           -0.38911155771442        8.39742845772477       12.31795496965519
C           -0.39797304731111        7.28711998177826       11.81521258830204
C           -0.31750298464019        5.97211836959448       11.30383811636642
C            0.51833615091880        5.60240771091786       10.20151180317494
H            1.06437197256855        6.32137123747987        9.60912579224821
C            0.52736550843321        4.26423400329659        9.99021851085072
H            1.07469335205655        3.72047010993712        9.23893186457178
C           -0.91514748625763        4.87694771582812       11.87776720928910
H           -1.63004369590563        4.87432170621534       12.68200628385731
C            3.68777034188748        4.61519770171182       19.12542042519949
C            3.98859706335008        3.67328358035821       19.84185003558800
C            4.35858576848490        2.63840719390165       20.72621317184348
C            4.03925311213871        1.25675749555187       20.53689397330877
H            3.48439471658818        0.88870329158051       19.68674831086340
C            4.53091995230902        0.47701097408328       21.53228613051115
H            4.43882125384829       -0.59199483510353       21.63166925391079
C            5.08635206325675        2.83710625450353       21.87270812048468
H            5.45146040013286        3.77785497004736       22.24915038990243
C            3.79780073064919        3.23543387416596       15.26863242590072
C            3.86116996063244        2.12638517277572       15.80581198237691
C            3.86661748665219        0.83930130325492       16.37055638422037
C            4.86815412549181        0.34569548016338       17.26652809462121
H            5.71994317546966        0.92992379717368       17.58176386518319
S            3.17646277810909       -1.56381826803245       16.97230416190714
C            4.61657442503766       -0.92513440402300       17.66504571354119
H            5.21192768329686       -1.53201367231140       18.32730967215257
C            2.88772278133944       -0.09986110742183       16.14000281946355
H            2.02420026724865        0.01643277312287       15.50718294466965
C            0.55812232338577        2.65141529979112       14.79610801161510
C            0.36473018491808        2.75394284559475       15.99807568479244
C            0.20366000565979        2.91680190552407       17.39296817813863
C            0.98586111949056        2.20655293579277       18.36042342027445
H            1.70855233297667        1.45125016236481       18.08891599893318
C            0.70831403912438        2.58899490511785       19.62913523383060
H            1.15073671091065        2.22200550566349       20.53961532812621
C           -0.64000729867316        3.82041896734582       17.98973176935803
H           -1.35592513794858        4.46110274061681       17.50449876840480
C            5.97423674927012        1.09016570536700       13.46052893414849
C            6.37675301109903        0.15375041508509       14.13917835396138
C            6.83996758690164       -0.89714953195917       14.95831775239870
C            6.37570593539574       -2.24707956156233       14.85956805501079
H            5.65050910624117       -2.56866032010227       14.12631802465515
C            6.94145071263990       -3.05237441470546       15.79198664555857
H            6.76680273924268       -4.10536921872754       15.93996487245638
C            7.75163096362841       -0.74860306198880       15.97297778012428
H            8.25616760163004        0.16079597472095       16.25608078740916
C            1.73319551604075        5.29743852911150       22.04922118266360
C            1.55556612997756        4.36780466060838       22.82595852454307
C            1.32009384987360        3.29758057083317       23.71108408673345
C            1.67539747749824        1.93688616514765       23.44074995169961
H            2.16033669540000        1.62221161812454       22.52834541624062
C            1.33759188879136        1.10592569693081       24.45636494577665
H            1.49169295998539        0.04070861436423       24.50993378956117
C            0.72131547596701        3.42556225069393       24.94114310385918
H            0.35788574795711        4.33492877620407       25.38989219260432
C           -0.10273157685529        7.26923434969041       19.00691387129266
C           -0.63785097410963        7.94295236773512       18.14218098225129
C           -1.26523194170207        8.73612547194874       17.14840102075961
C           -2.57443085777696        8.49132178145214       16.62373173155424
H           -3.20260694828768        7.68215469725079       16.96652229281501
C           -2.92185734165891        9.38031233497583       15.66275537667664
H           -3.84285177943631        9.42029382551295       15.10517400278736
C           -0.67151958781404        9.81270609779449       16.53806793013714
H            0.29472257834810       10.23128206672022       16.75765768247955
C            2.38945898874643        1.38352013980193       11.35628268855594
C            2.14298007904536        1.10986226251824       10.18895308379362
C            1.81382335951958        0.84112321455074        8.84275229481899
C            0.51478886316644        1.07027186842231        8.28540528185562
H           -0.31983254744543        1.43709555612152        8.86550851077308
C            0.46370775866563        0.76729318630890        6.96485073703463
H           -0.38700729056913        0.84696058308258        6.30822985754427
C            2.68918257362427        0.36161445190565        7.90275892852589
H            3.72715639901571        0.11424841745221        8.05094909287150
C            3.76698509583226        4.67273685102353       11.37506223550953
C            4.04360250675279        4.23500290859682       10.26610203320794
C            4.38897734462931        3.66968646462528        9.02330212876715
C            3.65100239909176        3.85813086778917        7.81155990482804
H            2.76751073942103        4.47607632625146        7.74641730474875
C            4.19876404826443        3.18633194773994        6.76968580562024
H            3.84303328273777        3.15129796042183        5.75320624590097
C            5.47934354059723        2.85764807103507        8.83081340643841
H            6.19740363083811        2.55643078428286        9.57487832881197
