442
 energy: -642.142987539719 gnorm: 0.000767545079 xtb: 6.5.1 (579679a)
Au           4.27083643901614        6.79018987079565        3.40067715827327
Au           3.97790767660188        8.84817414404491        5.08269311356769
Au           6.62107741739309        7.74396748374801        4.26277951605304
Au           4.49856272660375        4.18997631746122        4.41285819502600
Au           6.30858966226325        5.29205746822430        2.56359806427053
Au           6.16725329771777        8.02396044122600        1.49135838711005
Au           3.40349708186239        9.41481153983245        2.32607768215413
Au           2.72406193852433        4.84900413726771        2.33763648986778
Au           5.40192253945049        8.36315536641358       -1.03492793461486
Au           2.71099407044020        9.69288550541923       -0.21999562583994
Au           5.51255752117539        8.20147435361426       -3.90250899977034
C            2.03198416142951        4.86924692988982       -7.95362697267746
C            1.46957786077445        3.65364290363199       -8.34479068217366
H            1.91603723582456        2.71712084570752       -8.03184971477054
C            0.33044796043872        3.62826968374121       -9.13672214693599
H           -0.09798273398521        2.67565624668021       -9.42838356234751
C           -0.26573555157510        4.81191146004274       -9.54880105917269
H           -1.16069769747660        4.78639325152602      -10.15999132532708
C            0.28343017232353        6.02929358299455       -9.16611728572399
H           -0.17938276948314        6.95907211723265       -9.47770730616492
C            1.41672784158181        6.05447108964815       -8.37207113596860
H            1.83576728613816        7.00540026066224       -8.05898292753231
C            4.82865507319949        5.42171871766634       -7.99512661186246
C            5.59139375272965        6.56967526803902       -7.77958855567542
H            5.33676145287752        7.22542923761157       -6.95438877630431
C            6.67055127341317        6.87221396037410       -8.59618788599904
H            7.25403725295442        7.76719663298062       -8.40970580339238
C            7.00129717822554        6.02520121282159       -9.64401005436527
H            7.84692611765445        6.25427609917337      -10.28266045152106
C            6.24542547108681        4.88207179159623       -9.87432866338495
H            6.50070914769918        4.22044039478385      -10.69476818108495
C            5.16497064715918        4.58211518123495       -9.05922532621431
H            4.57798640288040        3.68998982837846       -9.24974067377846
C            3.88325019653506        3.38448620674604       -6.21061047416880
H            3.86888702668851        2.60678027301838       -6.97803088587920
H            4.91270015014665        3.45252855007809       -5.84954195953904
C            2.95648092810269        3.01208301724605       -5.04605065890440
H            2.02281221454231        2.60540337538200       -5.44643457626229
H            2.70085395628980        3.91459130659942       -4.47947076346590
C            3.58285939531189        1.99318428641552       -4.08826674434647
H            2.79022687937695        1.61876231864002       -3.43352742243015
H            3.97621476431444        1.14254766531365       -4.65516806898272
C            4.69601352108925        2.61624612134743       -3.23978487154922
H            4.30631949649136        3.50421935427503       -2.73047418086119
H            5.50917280055991        2.95575790501748       -3.89000656645015
C            5.29472174697387        1.64886387119404       -2.21431785699231
H            5.74520469106896        0.80000902603788       -2.74033574091013
H            6.10080357752555        2.17046537139402       -1.68797425003068
C            4.30214798521069        1.10384496028096       -1.18057672730883
H            3.57169776786096        0.45181602046742       -1.67068312768831
H            4.85955069185832        0.48555954908940       -0.46774701552311
C            3.55851188350078        2.20132943332172       -0.41422028353298
H            2.93925319218074        2.77667288173053       -1.10714599014800
H            4.27214313186301        2.89385626985999        0.04311079578235
C            2.67241620410601        1.58688421002724        0.67101891420411
H            3.30695153591053        1.11380556930350        1.42530177403917
H            2.04780291877325        0.80592955268892        0.22738170254567
C            0.87962303987841        1.92226232008008        2.88882749486969
C            0.67538093044864        0.54010465037669        2.87678449581832
H            0.88821378236059       -0.03540431616929        1.98330367712812
C            0.20561911142707       -0.11506267091292        4.00614617622952
H            0.05590300182666       -1.18883739647734        3.98087935644579
C           -0.07228745250218        0.59846496405168        5.16449837600758
H           -0.43327001129272        0.08369594350881        6.04776939394131
C            0.11715592576220        1.97413036532887        5.18723400680715
H           -0.10055612989907        2.53827949446893        6.08680372247448
C            0.59005410486005        2.62635967888101        4.06035321087315
H            0.75385277709264        3.69818931066431        4.08615684664655
C            0.29952287635942        3.08552731527743        0.28879499753081
C            0.55326734094469        3.96220040875200       -0.76950744816659
H            1.48882691555714        4.50744662375138       -0.80520713218040
C           -0.38379948498342        4.15631671552196       -1.76989577749380
H           -0.16231156692098        4.83697489172096       -2.58354128706897
C           -1.59875343130220        3.48691101672321       -1.72310315064384
H           -2.33070672569777        3.62836809664130       -2.51045259079765
C           -1.87582647632055        2.63673334544136       -0.65968115910574
H           -2.82891920393906        2.12158674928616       -0.61134989106031
C           -0.93411307052155        2.43511102067911        0.33997997773307
H           -1.16005011584461        1.76504579140893        1.16226909283282
C            8.92385755828946        9.88087422177875        6.04467766334956
C            9.92924356795826       10.25008906080667        6.94011629449763
H           10.59032607744373        9.49731971151507        7.35483521674450
C           10.08827639997121       11.57700771361776        7.30890542094731
H           10.87212992692599       11.85133247616136        8.00628021028689
C            9.25006520200207       12.55396851619542        6.78671134073078
H            9.38093222402102       13.59130278448334        7.07329668371934
C            8.24017246395813       12.19697346560367        5.90399703219068
H            7.57794892601456       12.95399947822090        5.49911540650880
C            8.07457711559708       10.86911147661854        5.54391678547578
H            7.27512629885606       10.58633489444653        4.86810104204692
C            8.92103072397894        7.11493330027970        6.90680867077399
C            7.77092745462325        6.55875265108916        7.47267142031114
H            6.80685376920945        6.78036769673384        7.02729328112461
C            7.84706609747152        5.72627124081166        8.57715381265521
H            6.94199123771619        5.30806568035153        9.00349654779259
C            9.08524178452596        5.41903986107833        9.12495969677981
H            9.15141195229235        4.76077751202769        9.98381436009821
C           10.23924516967748        5.94721420832455        8.56183924763975
H           11.20858964227186        5.70145626723333        8.98132184408460
C           10.16085928809670        6.78986340928037        7.46142266609271
H           11.07251910673796        7.19084409411543        7.03345235539802
C           10.15554954858294        7.89713829444508        4.39175522594414
H           11.08113213117715        8.22288509930600        4.87413759991734
H           10.24080538695347        6.82358512663771        4.20296985966296
C            9.97377348801215        8.63113879059964        3.05897927363531
H            8.97278175947968        8.42503790428180        2.66720583021697
H           10.04401174258176        9.70997251050229        3.23071156823230
C           11.02550235382571        8.19962563732049        2.03391851919598
H           10.85240086533969        7.15581935145454        1.75016817765604
H           12.01677818979597        8.25609693099934        2.49680635502500
C           11.02210207423198        9.08746922742984        0.78412358720641
H           11.93562941075631        8.88591074503485        0.21388536186689
H           11.05274246660422       10.13927575366998        1.08948428789252
C            9.81413761699465        8.85829516060275       -0.13013000434854
H            8.88274247524971        9.03531595402925        0.41698968828881
H            9.80842568766885        7.81632920531663       -0.46623123132117
C            9.88331484449612        9.80651833062491       -1.33256300494758
H            9.79041707394573       10.83730833509833       -0.97476699518206
H           10.86352801721042        9.71429910737401       -1.81448896681045
C            8.78869589037559        9.55504245403938       -2.37340791427823
H            8.78055424294668       10.39271294158382       -3.07899850295793
H            7.80994237397341        9.52839180176545       -1.88403130835115
C            9.01055564519613        8.24275951854388       -3.13384168346411
H            8.83909352676082        7.40180505593267       -2.45727779077549
H           10.04719299633554        8.17282440468712       -3.47658039548969
C            8.36339757195272        6.55635779894272       -5.38186113845748
C            7.47961569305581        5.47740259202816       -5.43710622568951
H            6.50075674986876        5.57106784181814       -4.97967621576285
C            7.83516715206688        4.30138390698825       -6.07991889967378
H            7.14002327181467        3.46994114451285       -6.11132490239897
C            9.07700051803020        4.19180029272097       -6.68896690035689
H            9.35437979269651        3.27585964157142       -7.19833070983249
C            9.96205571948040        5.26147840957247       -6.64877317846876
H           10.93180548299473        5.18167791407951       -7.12752020249903
C            9.60998609505234        6.43443871585952       -5.99883222026390
H           10.30825093913153        7.26378458000925       -5.97866082949064
C            8.29286538465478        9.38002365394264       -5.70201253291096
C            7.29061554300007        9.87398647473020       -6.54078131410371
H            6.27894529901550        9.49673768406030       -6.43506471492055
C            7.57015380077675       10.84280041891947       -7.49154234738975
H            6.78274474901574       11.20838665239249       -8.14009566731662
C            8.85955516988346       11.34581002548910       -7.61156243664938
H            9.08099286318432       12.10292919875569       -8.35527741649309
C            9.86022878397455       10.88055073505624       -6.76958068145256
H           10.86598764220495       11.27788258627054       -6.85051627620193
C            9.58105251721486        9.90514149847383       -5.82364326917102
H           10.37768567228857        9.55749465748703       -5.17630813435801
C            9.41545320024527        3.57594765928817        2.88989727342971
C           10.49080490562901        2.72589074584801        2.61675375650675
H           10.50745592123705        2.15132718306709        1.69705351787965
C           11.54180376474919        2.60845626997964        3.51312152981315
H           12.37071430827034        1.94682727903871        3.28709780249260
C           11.53592666945034        3.33516691456247        4.69667503759749
H           12.35957885538689        3.24321048758815        5.39565847268120
C           10.46981079482211        4.17667028120835        4.98430455442823
H           10.45738119935067        4.74173104480670        5.90941206147767
C            9.41886143342011        4.29409002750598        4.08616747702072
H            8.58135368682763        4.94511602332027        4.31233229745494
C            8.72033957293514        4.26662848573807        0.17291960300541
C           10.05424453823700        4.63114007328525       -0.01495179769508
H           10.74279234338580        4.62580314988832        0.82259959639937
C           10.51368296382278        4.99298410565940       -1.27326685056272
H           11.55530533494201        5.26328313569957       -1.40739751703326
C            9.64867399721802        4.99875854962670       -2.35934055925963
H           10.01741347285069        5.25214924271301       -3.34688471758696
C            8.30692653533838        4.68800658570002       -2.17243249270713
H            7.61839923663668        4.71796702896969       -3.00872921832011
C            7.84558225546664        4.34005028107590       -0.91592504746960
H            6.79162456002768        4.12972851623578       -0.77096969707725
C            7.48582979071408        2.04191345077882        1.41212036708379
H            6.78784296841988        2.05850993655797        0.57144962488204
H            8.35434899215555        1.45570831058427        1.09629433632257
C            6.81191498355902        1.36284968351987        2.60968931499489
H            7.42706004024729        1.49714443975780        3.50600617568436
H            5.84471336269280        1.83888447695937        2.79756122047724
C            6.62961331317650       -0.13706562437134        2.34364167316643
H            7.61505302039085       -0.56977580219160        2.13911526978111
H            6.02010164868946       -0.27776446644622        1.44467180510116
C            6.00166517310191       -0.89657202101978        3.52356837010667
H            6.30336229076257       -1.94633278329336        3.45242533590234
H            6.42460751145383       -0.51216832764818        4.45718525638173
C            4.46108958263463       -0.82753149940932        3.55808034217995
H            4.05105904989105       -1.80332375534395        3.28015516506662
H            4.10379434710184       -0.10899973983942        2.81321959443420
C            3.89310102799005       -0.42274811522350        4.92489123193449
H            2.80810190945837       -0.56981874106963        4.91752174843009
H            4.31346892710247       -1.05582241245167        5.71262386408937
C            4.20737902988789        1.04533007328230        5.20193675140704
H            3.79678190135889        1.65445813173638        4.39058374022471
H            5.29226208059812        1.18560733590698        5.18712171391850
C            3.66404017597520        1.59071965979809        6.52626884629886
H            3.92964447312466        0.93103756663807        7.35629209243710
H            2.57451240455378        1.66311888548652        6.48176529572797
C            3.61476575136467        4.13497260151528        8.06387530542530
C            2.82787244962514        3.52603013901315        9.04277873969268
H            2.66550374240836        2.45438246984233        9.02104644107338
C            2.24824623020152        4.28653310584212       10.05023261882156
H            1.64173644954586        3.80171440457029       10.80721704537776
C            2.44609769249961        5.66044349896946       10.09386344219335
H            1.99204618573882        6.25052857091694       10.88185106749558
C            3.22184739716787        6.27756815274206        9.12095728622076
H            3.37516986445157        7.35046809186179        9.14701843987666
C            3.79258536143979        5.52189540776581        8.11076372421122
H            4.38353448638552        6.00838396486397        7.34096416773767
C            6.05034406785722        2.84010659564423        7.36829461310684
C            7.14118226308825        2.76073909222182        6.50142094847337
H            7.00641274021897        3.00838773140245        5.45415070436143
C            8.38929536634386        2.37747430273247        6.96664601266737
H            9.22393115835980        2.30825726427687        6.27869732052097
C            8.57139215151526        2.09058977162719        8.31217604582209
H            9.54872113327675        1.79714780269691        8.67834055452957
C            7.49851534503659        2.18578157828884        9.18944194209384
H            7.63709484449650        1.96803000210476       10.24270009333924
C            6.24619743789152        2.55376739050947        8.72167766791802
H            5.41367579320034        2.61883874461734        9.41382373659447
P            3.45857313540539        5.07415342876062       -6.83701484589868
P            1.62733297392716        2.87165538291784        1.52343694498415
P            8.65399683224655        8.17700178472722        5.44646691645871
P            7.80080920199943        8.07229990484478       -4.52660578394626
P            7.99171113214516        3.80049031886423        1.77456522807771
P            4.42071037542640        3.27936148419582        6.66612486617264
Au           2.98460820323933        8.75692850129464       -3.40122958930024
Au           3.27750209124714        6.69974503479142       -5.08230576181175
Au           0.63475263712787        7.80412891977212       -4.26295196592321
Au           2.75677490475777       11.35690251134058       -4.41305776165739
Au           0.94658747066715       10.25517584967199       -2.56338563378869
Au           1.08834844565699        7.52383549367110       -1.49185233560270
Au           3.85233629481739        6.13206649981008       -2.32559550781069
Au           4.53154258355711       10.69808460691109       -2.33709613243603
Au           1.85342131389719        7.18455048162733        1.03551287394596
Au           4.54435207577642        5.85453261340520        0.21945882249868
Au           1.74244442461374        7.34604014776942        3.90216296726496
C            5.22350765600849       10.67814304614221        7.95362835428434
C            5.78591974309714       11.89374128863696        8.34479794922552
H            5.33946696624059       12.83026694726482        8.03185722407767
C            6.92504662610064       11.91910210169528        9.13673389603826
H            7.35347625084174       12.87171194286532        9.42840890767947
C            7.52121859783841       10.73545321848360        9.54880959355969
H            8.41617130334359       10.76096243059393       10.16001377433169
C            6.97205066104972        9.51807623248778        9.16611058605788
H            7.43485298166681        8.58829285543127        9.47770196974681
C            5.83875734016601        9.49291013741566        8.37205777780134
H            5.41971975493124        8.54198437864476        8.05895522992927
C            2.42682957465972       10.12566290760425        7.99514282011766
C            1.66410090068311        8.97770230104168        7.77958774052050
H            1.91874477203967        8.32195950873257        6.95438328371885
C            0.58494222139531        8.67515003716534        8.59618242628296
H            0.00145985045243        7.78016691276609        8.40968991050710
C            0.25418911452762        9.52215264128353        9.64401188981289
H           -0.59143582800817        9.29306505473667       10.28266290015799
C            1.01004739027191       10.66528897863115        9.87433860912198
H            0.75475233159552       11.32691737789784       10.69477715894324
C            2.09050235000335       10.96525960693876        9.05924156540116
H            2.67747615319774       11.85739094793101        9.24976063230198
C            3.37221082350372       12.16290979058190        6.21061659755219
H            3.38657522231096       12.94062437000471        6.97802867168753
H            2.34276006929841       12.09486091933780        5.84955039823644
C            4.29898199013112       12.53528889333679        5.04605102364094
H            5.23264509280461       12.94198201275966        5.44643661600838
H            4.55461549022246       11.63276935609980        4.47948887634186
C            3.67260240829333       13.55418004325995        4.08826022585484
H            4.46523330241968       13.92862004912909        3.43352961012817
H            3.27922589899654       14.40480685284004        4.65516254814835
C            2.55945867722715       12.93111312459191        3.23976952803383
H            2.94915958998760       12.04314413704046        2.73045614213313
H            1.74629614224983       12.59158946580496        3.88998043041529
C            1.96075467086291       13.89850186410515        2.21430762383393
H            1.51027848135629       14.74735223756212        2.74033879038630
H            1.15466838919065       13.37691202895706        1.68795940041539
C            2.95333360346860       14.44353385573635        1.18057773300252
H            3.68377139124993       15.09556530609566        1.67070005507003
H            2.39593546244659       15.06182044161062        0.46774538768457
C            3.69698089754510       13.34605087627032        0.41422802907134
H            4.31623269967604       12.77070941763577        1.10716233490305
H            2.98335765622562       12.65352231611859       -0.04311054875535
C            4.58307463952680       13.96048973509277       -0.67101805203406
H            3.94853304683734       14.43354219268557       -1.42531188577802
H            5.20767164624885       14.74146490211042       -0.22739264704108
C            6.37586931294086       13.62513058728553       -2.88882937540257
C            6.58009694395573       15.00729012504621       -2.87679713238776
H            6.36725151955202       15.58280584493671       -1.98332356523938
C            7.04985373024875       15.66245253604367       -4.00616480754668
H            7.19955467217929       16.73622944901525       -3.98090838868446
C            7.32776712663528       14.94891969096877       -5.16451206524763
H            7.68875152534835       15.46368301472059       -6.04778525812160
C            7.13832618622623       13.57325467598107       -5.18724079349112
H            7.35602771835217       13.00909973723431       -6.08680923778636
C            6.66544074428861       12.92103230675939       -4.06035400638182
H            6.50164425372204       11.84920385351172       -4.08615723267621
C            6.95594900824296       12.46181743868864       -0.28879823086301
C            6.70221413689921       11.58511460897300        0.76948435501077
H            5.76667507782408       11.03982709451173        0.80516304802631
C            7.63928465396637       11.39099643956190        1.76987003618631
H            7.41781277746018       10.71030982222482        2.58349678368130
C            8.85422899631243       12.06042376950479        1.72309318957961
H            9.58619367075736       11.91894298525276        2.51042809813643
C            9.13129427444468       12.91062468685915        0.65968788172347
H           10.08438571155284       13.42577453199512        0.61135726103617
C            8.18957855865967       13.11225023444628       -0.33997015428797
H            8.41551241073647       13.78231168424182       -1.16226355421764
C           -1.66833664544011        5.66648485212583       -6.04465084179183
C           -2.67373761691957        5.29730181311079       -6.94008553772534
H           -3.33481692863035        6.05008829483839       -7.35477892462466
C           -2.83279479384943        3.97039160966818       -7.30889260954563
H           -3.61665791218048        3.69609074492334       -8.00626512751872
C           -1.99459417714816        2.99341124187989       -6.78671704861018
H           -2.12548050605689        1.95608277115252       -7.07330976712845
C           -0.98469239301452        3.35037632777872       -5.90400375504090
H           -0.32247605667700        2.59333744000874       -5.49913519057546
C           -0.81907518355325        4.67822593332222       -5.54390649010166
H           -0.01962262125297        4.96096412274455       -4.86808356007910
C           -1.66551469130312        8.43241310417954       -6.90677978364912
C           -0.51541655064724        8.98859705355215       -7.47264963019223
H            0.44865927303153        8.76698713469719       -7.02726685406113
C           -0.59156632473753        9.82107593039151       -8.57713797645013
H            0.31350341329314       10.23928635051234       -9.00348743020266
C           -1.82974750338611       10.12830679918132       -9.12493633800988
H           -1.89592652147215       10.78657371906962       -9.98378774455844
C           -2.98374584423823        9.60013382974531       -8.56180466585924
H           -3.95309427137802        9.84589212185809       -8.98127993432571
C           -2.90534988426128        8.75748873485403       -7.46138369584463
H           -3.81700787093429        8.35651158968607       -7.03340698413818
C           -2.90001827915891        7.65020570170943       -4.39176249238029
H           -3.82558770289567        7.32445937934266       -4.87416999344693
H           -2.98527853957472        8.72375873863062       -4.20297917822817
C           -2.71829604057168        6.91620013594625       -3.05898158913371
H           -1.71731726896615        7.12228617334943       -2.66718232401445
H           -2.78853351511209        5.83736657496655       -3.23070945759724
C           -3.77002235719117        7.34773473830518       -2.03392921711618
H           -3.59691255920233        8.39154324492320       -1.75018884604791
H           -4.76128703445524        7.29126967306495       -2.49683838687689
C           -3.76663927834778        6.45989485545494       -0.78413005028756
H           -4.68015732828036        6.66145183758819       -0.21387659748134
H           -3.79728028389871        5.40808772800155       -1.08948739183778
C           -2.55867571248667        6.68905925248935        0.13011992513357
H           -1.62730190520422        6.51204478250217       -0.41703245266641
H           -2.55295652762396        7.73102446497213        0.46622299581464
C           -2.62783638391290        5.74083103962533        1.33255107049688
H           -2.53493507019527        4.71004085176202        0.97475431024016
H           -3.60805032715910        5.83304442618351        1.81447473176192
C           -1.53322278770604        5.99231239637880        2.37340127483275
H           -1.52506040921276        5.15464438733056        3.07899499745028
H           -0.55447701566991        6.01897364443899        1.88400908981830
C           -1.75508749721738        7.30459544897191        3.13383725136727
H           -1.58367576344119        8.14553709113340        2.45724472111589
H           -2.79170743192156        7.37453176917243        3.47663378106688
C           -1.10791430373106        8.99100899098131        5.38183696554077
C           -0.22414322482635       10.06997247127056        5.43708065867512
H            0.75471455059710        9.97631941832525        4.97964373398975
C           -0.57970337622103       11.24598476485339        6.07990588886596
H            0.11543072708411       12.07743627446093        6.11131162008906
C           -1.82153174822116       11.35555361870592        6.68896889369962
H           -2.09891411367388       12.27148710499747        7.19834478994501
C           -2.70657841862749       10.28586828902827        6.64877356905033
H           -3.67632546032157       10.36565530704024        7.12752998757708
C           -2.35450180985502        9.11291679734524        5.99881859989936
H           -3.05276224190528        8.28356745217408        5.97864378786543
C           -1.03739053599308        6.16736231165684        5.70201375517876
C           -0.03514528611602        5.67340434732246        6.54079265320431
H            0.97651986367032        6.05066932224636        6.43509692150430
C           -0.31467950465037        4.70458069005281        7.49154520492234
H            0.47272791115466        4.33900621440640        8.14010749644688
C           -1.60407507911547        4.20155252162538        7.61155051337338
H           -1.82551048059373        3.44442787510904        8.35526080928908
C           -2.60474758002217        4.66681036394643        6.76956669779759
H           -3.61050507004935        4.26947330049840        6.85050045192970
C           -2.32557533332238        5.64223116192694        5.82363811008145
H           -3.12221377367503        5.98987344203922        5.17630690674676
C           -2.15997813144119       11.97140945038777       -2.88988560199399
C           -3.23533156536005       12.82146657838298       -2.61673792110159
H           -3.25198315733270       13.39602407035774       -1.69703414023036
C           -4.28633177624813       12.93890619679798       -3.51310516092759
H           -5.11523492030922       13.60054634748284       -3.28708552956580
C           -4.28045893529513       12.21219482993336       -4.69665807094687
H           -5.10411515898823       12.30415080518130       -5.39563764315531
C           -3.21434301685079       11.37069242023569       -4.98429238410487
H           -3.20191141790825       10.80564243158653       -5.90940655188089
C           -2.16339037693510       11.25326815253109       -4.08615661542634
H           -1.32588429626293       10.60223843665862       -4.31231799560263
C           -1.46485963286377       11.28072066857987       -0.17292559061913
C           -2.79876627965416       10.91619911645638        0.01493552131642
H           -3.48730527563054       10.92151916577529       -0.82262326891787
C           -3.25821681917527       10.55435908662900        1.27324806703946