344
 energy: -559.301047471674 gnorm: 0.000591148993 xtb: 6.5.1 (579679a)
Au           7.99649800775788        1.50380189937580       27.14378612282413
Au           5.22810168244281       -1.08812956489150       27.71939393142328
Au           6.15438596453006        0.01923943598915       24.06425739430718
Au           7.88126205214995       -1.28560317881082       25.97280831247265
Au           5.03007254076517        1.62737116897011       26.25799497568342
Au           4.39719109120851        2.04098548357736       23.51888732972390
Au           6.48229247004647        3.81798822719854       27.32388589453967
Au           3.10134159583176        0.64989088025089       28.10928956307934
Au           3.44894710884156       -0.60573891946280       25.60646630732328
Au           5.85825488940004        1.56472351594094       28.97544631187041
Au           6.91107276676922        2.77991544037819       24.50378294953268
Au           9.36814879290123        3.88571512054482       25.66469457668424
Au           4.79422849975315       -0.06023892746361       21.47355052463515
Au           3.49657650738316       -1.61321332275917       30.01268507951474
Au           3.30677365828604       -3.34412747390536       26.67729377919830
Au          10.21133116024908        2.22999158936268       28.96990133733031
Au           8.43816506532555        0.48869390296236       22.03813297033215
Au           5.65729315233459       -2.68885473596651       25.09704702352299
Au           7.73147953930456       -0.90390983524233       28.88033705547831
Au           9.29785100047879        0.96243489995149       24.79242479900393
Au           7.73943610224142       -2.14586906514620       23.31608217289784
Au           6.86178009939280       -3.31276716928094       27.78870878651391
Au          10.15084905358855       -0.18345608905316       27.25337880327501
P            6.74545971187296       -5.59329645693638       28.48978406037068
P           11.95573997277268       -1.64059816802763       27.84800631690148
P            8.48953241834927       -3.48079352163570       21.48471582798068
P            6.72089384828864        6.08388093358400       28.07455420458783
P            2.89433187753114        3.57353355570873       22.47076279917523
P            1.22404574759653        1.67183907376672       29.17435737700180
C            3.69838343524037       -3.83464689016939       24.77037368246911
C            3.62873946010591       -4.27298946043270       23.63170632424496
C            3.58229428218121       -4.78930871325562       22.31519094981359
C            2.68988639664335       -4.26514006639166       21.37246457494419
H            2.01557122681820       -3.46743376888391       21.66203635160361
C            2.67348767922511       -4.76685734593649       20.08162005307178
H            1.97345468038848       -4.36614269090582       19.35738173055150
C            3.54911596023099       -5.78155477615953       19.71280621688618
H            3.53577224805839       -6.16689862000568       18.70010223280869
C            4.44136377319271       -6.30155095043369       20.64239020135359
H            5.12773174801582       -7.09042441822899       20.35517384567510
C            4.45808056007934       -5.81590167720481       21.93830036973799
H            5.15004004276372       -6.21982241049555       22.66893242693866
C            2.68093779705823       -3.05425910131531       28.56719852642622
C            1.92195233482636       -3.17261205232555       29.54167959401123
C            0.89223151074094       -3.53881618702897       30.45151116266872
C            0.08698603189607       -4.64533351338455       30.15472068167295
H            0.27573434373625       -5.21581912867276       29.25287981490396
C           -0.94250151677644       -4.99979926085350       31.01000459909920
H           -1.56424974662644       -5.85596872103571       30.77510485322336
C           -1.18118748360370       -4.26356730018227       32.16384499482766
H           -1.98938486882925       -4.54429571742834       32.82864704528114
C           -0.38240963419913       -3.16775834520682       32.46543591936718
H           -0.56612521398624       -2.59148314892663       33.36490415771392
C            0.64923495976786       -2.80656457206579       31.61622755613816
H            1.27193816730541       -1.94833807243522       31.84415396411786
C            4.45199755940458       -0.16248775988887       30.95356539535879
C            4.89491988012781        0.83230547815384       31.50377407528216
C            5.33597809736038        1.90899471045266       32.32195503629768
C            5.62089305772949        1.68608794967275       33.67355550856164
H            5.50593827410903        0.68989614233095       34.08415301741784
C            6.03554325364431        2.73405868559666       34.47915774469605
H            6.25651441712662        2.55290121372190       35.52472380002998
C            6.16570665233072        4.01352846661496       33.95408482860064
H            6.49074411441218        4.83082421322688       34.58693047450741
C            5.86803079349092        4.24592942874980       32.61744415567828
H            5.94976735680629        5.24644736692076       32.20755923905472
C            5.45251728160054        3.20312631552481       31.80762089946293
H            5.19198280878549        3.38976350295613       30.77062702192234
C            9.48848335783945        0.94970175324492       30.28940989200006
C            9.05463563051981        0.04368369183917       30.98412336389376
C            8.63395861718378       -0.92805465842424       31.93770538849131
C            8.13384752056144       -0.53468075402014       33.18193538888963
H            8.07911420156706        0.51990545149003       33.42479103465408
C            7.70793227890574       -1.48877153767856       34.09136717144500
H            7.31628746100666       -1.17750782596546       35.05309460853909
C            7.78392961929981       -2.84072634944294       33.77968365755668
H            7.45162072663147       -3.58319783821706       34.49565960584971
C            8.29593498478669       -3.23986481305702       32.55153006504119
H            8.37773032819032       -4.29433236948700       32.31082555839662
C            8.71535699667645       -2.29140347977007       31.63391732214452
H            9.12810291743585       -2.60157650228456       30.68031572214995
C           10.57599190178025        3.54399072049155       27.23912151634049
C           11.67655524517399        3.51147633195398       27.80997208026003
C           13.01786558178525        3.66845950720955       28.25646042876362
C           13.66580028183777        4.89726907344098       28.08891895505714
H           13.13123722682086        5.72516478753068       27.63792690670894
C           14.98108372262799        5.04539174403562       28.49540619840187
H           15.47999868288156        5.99835366019684       28.36211933321325
C           15.66179719627018        3.98025820517108       29.07222524209139
H           16.69114936884347        4.10196193855061       29.38804024593870
C           15.02227589924929        2.75916718414113       29.24417538120147
H           15.55079169028646        1.92476613890798       29.69128282302230
C           13.70799023032515        2.60222238011823       28.83988491654150
H           13.20483529987611        1.64963602537127       28.96422426858180
C            8.37504208188422        4.44521012761600       24.00379207548360
C            7.95732499633804        5.07404900221609       23.04170303461436
C            7.43664733292602        5.81211898323591       21.95165899530802
C            8.00686112494560        5.72654160600530       20.67643753645055
H            8.87978950785429        5.10328939450547       20.52206684230503
C            7.45545437270509        6.43824823551804       19.62368927870829
H            7.90334550916782        6.37505050524852       18.63854849546394
C            6.33225738603936        7.23198726188598       19.82469323965716
H            5.90231652768191        7.78212814088746       18.99595837989175
C            5.76102428234461        7.32022915722442       21.08830414617337
H            4.88362823098060        7.93741303443599       21.24741325185409
C            6.30848405095126        6.61983719638315       22.14867126748602
H            5.86998011505154        6.68628365694659       23.13800256845339
C           10.26153903864670        0.29318980802894       22.87963929462287
C           11.38603246876095       -0.17683915375558       22.97967994548213
C           12.67697667008279       -0.73852276919366       23.11672112844225
C           13.82414673738302       -0.03279839244660       22.73460338154111
H           13.72420142351329        0.96084907673281       22.31418456083999
C           15.07452262946821       -0.60652648364309       22.89415848921726
H           15.96041952955497       -0.05768796787286       22.59598718861336
C           15.19808204328670       -1.88113735115502       23.43393270540243
H           16.17907252416527       -2.32425175914831       23.55882826733416
C           14.06323349738361       -2.58865850509093       23.81167566952004
H           14.15819094570945       -3.58435327721287       24.23059507408103
C           12.80890568028848       -2.02594572507484       23.65477207996967
H           11.91868990271258       -2.57412709343525       23.94233731299631
C            6.80550974327659        0.55199546489726       20.87013386389140
C            6.17760400952099        0.67669478472854       19.80836409840856
C            5.73837622248140        0.92741084120213       18.48045983497302
C            6.66925960600342        1.35546168070213       17.52614224046678
H            7.70729414531279        1.47960135126593       17.81136149367158
C            6.25904079160186        1.61614655784961       16.22966879780243
H            6.98294737397976        1.94824195914968       15.49450610952218
C            4.92698612023563        1.45448505767759       15.86906461375459
H            4.61131687535168        1.66060770735336       14.85327907399406
C            3.99994190960354        1.02699963568289       16.81147677633306
H            2.96007349844043        0.90031051372309       16.53315684047531
C            4.40109772637576        0.76435199536604       18.11006889734421
H            3.68015678272855        0.43633363487321       18.85089818943435
C            3.15432692128813       -0.56262909016744       22.44534828230203
C            2.19045408914931       -0.66749920434423       23.18208627237817
C            1.01665078192421       -0.77029828044506       23.98511957246069
C            0.28022929061474       -1.95623965853610       24.06382826822017
H            0.60554701044856       -2.82431844717569       23.50289007069554
C           -0.85685250841297       -2.01441341484492       24.85158085243040
H           -1.42653937877560       -2.93496219932172       24.90638040128894
C           -1.27373874957127       -0.89897054274019       25.56878071920486
H           -2.16926879160906       -0.94792506209524       26.17700213671820
C           -0.54191875058188        0.27994768134734       25.50561464876956
H           -0.86213591228830        1.15239447029252       26.06505824041007
C            0.59694588244333        0.34796187568722       24.72123478075146
H            1.15846166126180        1.27226987468031       24.65178834116474
C            5.48248025162997       -5.55268841301758       29.79477663997910
C            4.38363009919954       -6.41099661742873       29.84731125045311
H            4.28258653543609       -7.20728347099880       29.11908742338449
C            3.41415353400338       -6.24823140505299       30.82684274855460
H            2.56226005066315       -6.91785870355140       30.85282235389779
C            3.52902611286146       -5.23516171122676       31.76773015916693
H            2.76817968855126       -5.11050203606405       32.52911777747636
C            4.61901168496401       -4.37368442210799       31.72599470186877
H            4.72416374334368       -3.58597693962235       32.46298744714755
C            5.58053152147713       -4.52549344011771       30.74056011939282
H            6.42138845603339       -3.84171517263645       30.70199866702317
C            6.22128155996053       -6.88563659847463       27.32549513313319
C            6.91359107217457       -8.08412062627323       27.14143313289634
H            7.78939658400424       -8.30290030569061       27.74110126969589
C            6.48138681559913       -9.00212374260915       26.19503448893081
H            7.02350126542248       -9.93168921803460       26.06572630378623
C            5.36095113788332       -8.73665208288846       25.41858718189963
H            5.02905968601636       -9.45635525497726       24.67964494343861
C            4.66793690249487       -7.54482108235080       25.59002171050962
H            3.79462266317552       -7.32657431813994       24.98641996803212
C            5.09813490074843       -6.62869548977755       26.53357061587309
H            4.55774278176159       -5.69677948270452       26.66245933597421
C            8.26155085841103       -6.21567475696050       29.27132234088173
C            8.32794438217951       -6.63451829829092       30.60077573672417
H            7.43277531522438       -6.64071982167309       31.21168133613606
C            9.53549853891451       -7.05232710014754       31.14139460012548
H            9.57550954598139       -7.37804668851695       32.17428053800956
C           10.68554760325904       -7.06276370378310       30.36388741065169
H           11.62447612688216       -7.39984659364778       30.78691793703400
C           10.63050762653841       -6.64312584152541       29.03986806245866
H           11.52386488394698       -6.65323772829787       28.42535943680714
C            9.42933145957771       -6.21213320117396       28.50071569901846
H            9.39135195206515       -5.86969381783567       27.47137177126564
C           12.04194367942594       -2.12541980468092       29.59562701712000
C           12.35132476340479       -1.14984144314012       30.54916790636362
H           12.59988325432970       -0.14460456723136       30.22618639073527
C           12.34285974917116       -1.45615461882562       31.89956811505553
H           12.58803431216635       -0.69038144587966       32.62619225743236
C           12.01516920769785       -2.73852074070944       32.32075133089197
H           12.00540727998310       -2.97760645090843       33.37753339098581
C           11.69121760228398       -3.71026982017874       31.38442694468599
H           11.42575781690803       -4.71129433407006       31.70572859041083
C           11.69577579157402       -3.40629944317309       30.03125790990533
H           11.43286319361296       -4.17147083828358       29.30966305084710
C           13.57197950262284       -0.89994378373708       27.47780854411872
C           14.73810695633551       -1.19468198613801       28.18881005209057
H           14.70619145400471       -1.89375113774639       29.01668837340388
C           15.93610132206204       -0.58513815379954       27.84791690886926
H           16.83465320177729       -0.82065466349657       28.40626148735592
C           15.98667065841513        0.32333844479555       26.79900390080195
H           16.92449921380022        0.79955832957293       26.53848964165403
C           14.83229167533215        0.62714888788056       26.08989388644414
H           14.86322207045903        1.33968159185567       25.27393542814999
C           13.63401918182095        0.02132545389209       26.42845809858066
H           12.73151867175127        0.26401633092752       25.87751663051374
C           11.96599140825374       -3.22554198353516       26.94460980748709
C           13.07348557517903       -4.07826147392380       26.96734531985940
H           13.95355282898297       -3.80410828306014       27.53790973895850
C           13.05732978306746       -5.27106253746589       26.26077280486487
H           13.92282690288356       -5.92265414398020       26.28825112670569
C           11.94056292148965       -5.62899496655313       25.51558841993680
H           11.93310873593542       -6.55808763809500       24.95792275865366
C           10.83547775766744       -4.78983855073618       25.48420214521274
H            9.96310369323636       -5.05666931243769       24.89887268358197
C           10.85077193080155       -3.59943684717304       26.19514242067724
H            9.98335412964488       -2.94896563840560       26.16492076646190
C            7.46250463630899       -3.11048948356591       20.03090278454065
C            7.95237213401201       -2.89945370564573       18.74192207656074
H            9.01319658165652       -2.99225576345900       18.54103377908591
C            7.08652317342159       -2.56920316304860       17.70863432695721
H            7.48159395319803       -2.40067469478385       16.71353681699902
C            5.72450073254469       -2.45451372114909       17.94428864610590
H            5.05174271926263       -2.19068801767715       17.13683665457839
C            5.22397797165065       -2.67734408088707       19.22100467838838
H            4.15957906591417       -2.60559213976186       19.41074938454744
C            6.08615607031095       -2.99764906411825       20.25639905232446
H            5.69185714981635       -3.17316498672711       21.25194499902104
C           10.21827207975282       -3.32661907499136       20.95854031040639
C           11.16067678888835       -4.32102878644482       21.23344280155214
H           10.84712646958448       -5.24976249872950       21.69675161929210
C           12.49584447764879       -4.12918418095791       20.91255159231612
H           13.21632177920026       -4.90936872384719       21.12956015165239
C           12.90995328384669       -2.94401569625685       20.32063105576316
H           13.95451437318648       -2.79644523110976       20.07304097291984
C           11.98471015876007       -1.94224660142847       20.05822645283758
H           12.30411726243371       -1.00948323246096       19.60831472803696
C           10.65127226878412       -2.12739035798308       20.38313059951188
H            9.93711632968397       -1.33222370883203       20.19681036826569
C            8.21953537322231       -5.26033344757520       21.74420851613991
C            8.24609484705059       -6.16902008796396       20.68236478030953
H            8.43948858085023       -5.81484561165545       19.67591814600092
C            8.02045345707951       -7.51737972761208       20.90980230921887
H            8.04117602614544       -8.21329500261085       20.07929131292483
C            7.77154721355845       -7.97707245960047       22.19696972758271
H            7.59746018522188       -9.03221872916124       22.37256961033155
C            7.74094726908996       -7.08242847116860       23.25779853564445
H            7.54579010678735       -7.43550560146634       24.26366301610459
C            7.95626432349636       -5.73175099335794       23.03097741205094
H            7.91189921134728       -5.03132802465847       23.85812710840067
C            8.27253923921038        6.08379615513547       29.01904883747311
C            9.36496833579395        6.89930160782151       28.72247576781923
H            9.28648917306515        7.64864321100996       27.94343944189248
C           10.55606339701682        6.75663050282600       29.42017382590419
H           11.39754510087873        7.39514377058512       29.17737368570442
C           10.67247793482432        5.80522930850083       30.42279491959636
H           11.60468509296978        5.69613874156000       30.96425211139699
C            9.58977399023834        4.98838689342326       30.72960432267164
H            9.66541288598882        4.25535960746394       31.52394191315727
C            8.40386523766525        5.11909357726328       30.02487034184793
H            7.56683774728934        4.46949764681871       30.25694762654056
C            5.43667777112916        6.61529353791711       29.24543178051658
C            5.71567019605101        7.25798267440037       30.45318464924296
H            6.74367307162556        7.44731899288390       30.73961296783965
C            4.68060059140957        7.66468639506725       31.28284715413122
H            4.90799045169297        8.16243672180617       32.21828481344428
C            3.35979961527586        7.45146797602429       30.91162354601052
H            2.55427065239460        7.78999196288102       31.55249773206714
C            3.07215381717120        6.81138519725247       29.71236784030032
H            2.04306057023455        6.65206370322704       29.41088928699689
C            4.10400998610414        6.38129706919316       28.89424790240714
H            3.87967543965541        5.86494711830512       27.96666540456844
C            6.84123395841110        7.45134457814984       26.88258654295056
C            6.03776141591197        8.59287433329935       26.95283451704145
H            5.35349040718636        8.72510113401847       27.78264309541730
C            6.11369798048021        9.56391187685378       25.96521933828334
H            5.48617023938902       10.44505670574472       26.03343316147960
C            6.98552735768369        9.41096504041725       24.89609394502019
H            7.03672767243854       10.16912678484635       24.12364178502415
C            7.79167267286743        8.28271304559206       24.81832810764445
H            8.47558198356211        8.15531133187650       23.98738742598540
C            7.71587416477813        7.31069334710797       25.80134993936901
H            8.33568124877086        6.42396347021028       25.72861198468708
C            2.96205188294928        5.25380248177105       23.17122754555412
C            2.40316245413657        6.34988643484910       22.50780334569033
H            1.88100147863568        6.20196562880006       21.56911081340083
C            2.52094784130999        7.62579991435577       23.03618014455501
H            2.08500302141809        8.46733108527641       22.51058317961515
C            3.19952879423648        7.82757975829543       24.23126124818875
H            3.30096406400061        8.82658565548359       24.63912742598857
C            3.75493651090737        6.74584708955213       24.90011588440611
H            4.29139314845147        6.89706586215359       25.82961096745498
C            3.63697624065709        5.46808299326718       24.37337972570425
H            4.08002941546102        4.62820296855969       24.89693408112958
C            3.34685811411148        3.84705279119255       20.73228541719480
C            2.42014053848375        4.09313910421939       19.71689276743270
H            1.36005352605160        4.10945904584944       19.94234216473478
C            2.84977058235062        4.31082550899780       18.41620243833349
H            2.12104886241726        4.49665131433244       17.63575138130984
C            4.20404714354584        4.29182832235602       18.11342841594364
H            4.53602926964250        4.45889942791951       17.09545420919552
C            5.13330364440222        4.04932195145858       19.11625996978004
H            6.19198996964734        4.02857590707797       18.88573438182080
C            4.70808067816716        3.82600212537866       20.41490140011619
H            5.43697015407314        3.63281649891613       21.19523947284564
C            1.13972425069718        3.11803600523319       22.46791459828031
C            0.23132725743633        3.69434846150425       23.35894714312862
H            0.54754546212541        4.50992726347858       23.99951816156743
C           -1.07308966013297        3.22957363177998       23.42900677210786
H           -1.76763020478155        3.68633434849839       24.12505624771032
C           -1.48540300936387        2.18171769191681       22.61733066983725
H           -2.50424032484979        1.81755676412070       22.67658346182235
C           -0.58725231017486        1.59468430244520       21.73519249022900
H           -0.90266097990842        0.77084061573817       21.10559240115471
C            0.71839640068564        2.05162323595551       21.66560782109721
H            1.42176195789848        1.57722676421345       20.98968575806129
C           -0.15998833109602        0.53254987337007       29.45601636278340
C           -1.16234169802432        0.77699349430074       30.40075098321232
H           -1.13713534819224        1.68505024364372       30.99235850856033
C           -2.18044721110439       -0.14350022252398       30.59411308626519
H           -2.94906340485895        0.05477468998729       31.33200459916689
C           -2.21461495522336       -1.31662210632066       29.85179084393959
H           -3.00735228308018       -2.03779341890518       30.01229822405547
C           -1.22699648479000       -1.56766821491091       28.90947801690257
H           -1.24216490232836       -2.48532917905936       28.33300833408541
C           -0.20696618619109       -0.64997531867288       28.71483473102323
H            0.56777066020942       -0.85300743353441       27.98360565987832
C            1.58350345371693        2.36587247473506       30.81478407329757
C            1.60399370264309        1.51722251692807       31.92633068045103
H            1.32509596584381        0.47514750033039       31.81308428911351
C            1.97571492284402        1.99653151207374       33.17165101534384
H            1.98130245227234        1.32772626406635       34.02446050261759
C            2.34788762747755        3.32542186406870       33.32449923611718
H            2.64396414027757        3.69887846731751       34.29766313877408
C            2.35150106426230        4.17067028068682       32.22376300188721
H            2.65377023448130        5.20617202734855       32.33292168033415
C            1.97707168342856        3.69544768431557       30.97669440994873
H            1.98630322765938        4.36345577034379       30.12313327809330
C            0.56084065739370        3.05534517460992       28.19760125249969
C           -0.80430631564526        3.30174606453085       28.04290839494504
H           -1.52905525837892        2.66169554624567       28.53273441587233
C           -1.24073052945014        4.36480014975098       27.26609174126786
H           -2.30340941097701        4.54535663479399       27.15334648738642
C           -0.32331162346956        5.19806127904955       26.64079607552247
H           -0.66655175629746        6.03468313999503       26.04362071170776
C            1.03722171767955        4.95411735786856       26.77815015479673
H            1.75833906212738        5.59543132944186       26.28456643827829
C            1.47555290691620        3.88352301243640       27.54035113790380
H            2.53855399832236        3.68043042956677       27.62482018201221
