248
 energy: -353.957086024988 gnorm: 0.000310111967 xtb: 6.5.1 (579679a)
Au          11.37997937458207        7.92845918609990        7.82224323419032
Au           8.72513253782666        8.15811389429901        6.55706985339808
Au           8.81162743433371       10.33466601627847        4.46153198508527
Au          10.69143340451648       10.50332436952560        6.61761942699306
Au          11.21556046194245        8.73259077445542        4.18345534493741
Au          13.35319542402586        7.49807937757402        5.57845149317760
Au          10.63643186296098        6.20649446784444        5.46561760707141
Au           8.77137759922008        7.36483097880435        3.79079064338716
Au          11.19851237905918       11.63353566145114        4.07755886426124
Au          11.53946557435098       10.28338985472217        9.41798901224834
Au          13.46224349880744        9.77177723326303        7.53783929110946
Au           8.62925990967505        9.94193866108365        8.73234040941411
Au           8.84708313880527        7.25249006690554        9.15918131115714
Au           6.21027998424119        7.72968320921314        5.29002095084131
Au           8.29714312397540        5.06241384783897        7.00185450602580
Au          10.83082274706915        5.13344929047854        8.36055199927596
Au          13.86596281712013       10.28014138164098        4.55322463070603
Au          13.01677455323676       12.36871019488179        6.26053633403643
Au          10.05731032018855       12.75321351451178        8.29015983529134
Au           9.59555999997051        9.32922550335734        1.71740149149907
Au          12.97835110155225        4.56051018983978        5.98411009223466
Au          14.82205156223704        6.23723303183595        7.47339160421525
Au           9.91119529835704        8.98466509842406       11.37127793139569
C           11.87482028743229       13.50668133716429        7.81729443088249
C           12.70418396306816       14.40950261376333        7.90270756741366
C           13.62048054855957       15.53791763288126        8.05930550319784
C           12.99394178640027       16.53329505555595        9.05120957703547
H           12.03016505940860       16.88025778993687        8.67952518997211
H           13.65253189749478       17.39215033381050        9.18049421495711
H           12.84359137932014       16.05741104827563       10.01981177451424
C           14.97002585530227       15.03766279101662        8.59719777084348
H           14.83693229145415       14.54737365999052        9.56106866743541
H           15.65890095837255       15.87340413077421        8.72039112837409
H           15.40683016422180       14.32121073387587        7.90184905243710
C           13.81799696047203       16.21694677485674        6.69384030176177
H           14.24890299165799       15.51123741560335        5.98336127369303
H           14.48912465204463       17.07017177227658        6.79275563220110
H           12.86214240546464       16.56358427115085        6.30170612035535
C            8.16053129076534       12.22249568478854        8.64844455728570
C            6.94192277610914       12.16858704950776        8.65742541476735
C            5.48030430903013       12.11689154721482        8.67807816443347
C            5.00595786983535       11.77345635159715       10.09915607414981
H            5.40849095202210       10.80759753037756       10.40501436436012
H            3.91719215145660       11.72688401562801       10.13054573361216
H            5.34656860576752       12.53153144509828       10.80410621522768
C            4.92338655186072       13.48418073636587        8.24963004263805
H            5.25980843959840       14.26058390460795        8.93635782651946
H            3.83347739643396       13.46072563845637        8.25033302726538
H            5.26849959243618       13.73300206426909        7.24592360655280
C            5.01613332806797       11.02999466117272        7.69325487904579
H            5.37899959083584       11.24810074506942        6.68885892639864
H            3.92729277985971       10.97945830472839        7.67092458675099
H            5.40641279850238       10.05767523979975        7.99640991875327
C           14.73009963926012       12.12882305130988        5.01064251463779
C           15.66581134680269       12.83138271474916        4.67452181046769
C           16.80164229980381       13.64766461765856        4.24469227643915
C           17.46416309061683       14.28941893350579        5.47425275246531
H           16.76094852140792       14.95259336411067        5.97745519984437
H           18.33466693375771       14.87011254474134        5.16876461188595
H           17.78395408361457       13.52207836085813        6.17844576344045
C           16.29701241223299       14.74472777657148        3.29334473329453
H           15.85573343368984       14.29756897872620        2.40311228820094
H           17.12505822387876       15.38505421025781        2.98903349504018
H           15.54237620865740       15.35652670519866        3.78758502131774
C           17.80995985462287       12.74539522666828        3.51306080740191
H           18.17318324880714       11.96443074977059        4.18049821501001
H           18.65871855699310       13.33709501390294        3.16996906536520
H           17.33749576212661       12.27480680888427        2.65093093850233
C           13.74920491842972        8.58694833898692        3.43619291571312
C           13.78331815927599        7.87920471128125        2.44624957217429
C           13.84590087486904        7.03748054500212        1.25493505349325
C           15.12727876737447        7.36573392303328        0.47167402684130
H           15.12619444128087        8.41373615852108        0.17170185686839
H           15.18675803458697        6.74421702874862       -0.42173024904292
H           16.00542100646263        7.18007965290743        1.08968454317770
C           13.85353039630178        5.56402191941622        1.69354196052405
H           14.73061185741582        5.35656033285599        2.30646497438516
H           13.87254502892278        4.91384680774648        0.81896351752799
H           12.96165974070604        5.34167704001127        2.27894702806478
C           12.61017478804314        7.32791349670428        0.38775385026673
H           11.70101351932124        7.10497845986171        0.94622898207818
H           12.62908521761097        6.71329330044676       -0.51214026374548
H           12.59058376621578        8.37838535884631        0.09833758478498
C           12.16188760652367        6.14830407832477        9.47438811419392
C           12.91510431458571        6.54128307127348       10.34076000202109
C           13.79863359509127        6.96354922830993       11.42989349621518
C           14.25904317313841        8.41012527238317       11.19955887294724
H           14.78336636988225        8.49371334557633       10.24832758889737
H           14.92972729555176        8.72316665405741       11.99990596012253
H           13.40101417063400        9.08180436150065       11.18395931505457
C           15.02371020047469        6.03765160409990       11.47448117432033
H           14.71221451835715        5.01099856494209       11.66533009851047
H           15.70488683048635        6.35014231557046       12.26613239962073
H           15.55305784329968        6.07110170585057       10.52170598449263
C           13.01556812009416        6.86897174463172       12.74915895788544
H           12.14449650391466        7.52389764402240       12.71282785764556
H           13.64674676534261        7.16973540371633       13.58547580650109
H           12.67300978050030        5.84722286728384       12.91357002681757
C            9.70925213337824        3.62452794482220        7.50626240634901
C            9.79862670390901        2.42699305079724        7.29686584831638
C            9.91576070059034        0.99359147835923        7.04042243745236
C           11.04193996470666        0.76736664991740        6.01916183554273
H           10.82266130584901        1.30078836256834        5.09446717192465
H           11.14484960058193       -0.29522587334910        5.79947695866427
H           11.98768245605103        1.13916270988165        6.41336420607229
C           10.23394357861219        0.26864840297940        8.35815975980412
H           11.17287454728743        0.63546551234684        8.77218976727011
H           10.32311504035756       -0.80366355075105        8.18386799733752
H            9.44180322466807        0.44364927395575        9.08604690989385
C            8.58076077275387        0.48034560903567        6.47368878420311
H            7.77520044227589        0.65622664148246        7.18636385539422
H            8.64771978805283       -0.58905220598758        6.27336050010235
H            8.34250448442959        0.99696347417800        5.54397703657145
C            6.53863541831153        5.83057792394226        6.33661383279814
C            5.30845222290849        5.87089528827579        6.23107866247863
C            3.86077763589773        5.63159840320587        6.29833155344889
C            3.64644724897945        4.30944738035311        7.05340039323767
H            4.13167569156808        3.48989846783424        6.52379317425628
H            2.58034798168305        4.09626576051514        7.13200380112123
H            4.06754906506175        4.37551570843799        8.05631992347820
C            3.27990289432073        5.52880742756792        4.88112993491207
H            3.43575938315246        6.46371441286515        4.34296505962067
H            2.20994481967723        5.32572669651954        4.92721512130898
H            3.76685520638979        4.72419653075788        4.33051360715449
C            3.19275946543633        6.78751470784596        7.05836492291796
H            3.61985383276854        6.87952819511899        8.05672292845509
H            2.12125774898219        6.60894939805433        7.14804716782289
H            3.34864662017180        7.72596156699164        6.52596207626410
C            6.29059687143759        9.53239772501942        4.48328101918596
C            6.25264256547553       10.64742797261898        3.98836677306360
C            5.95305733353731       11.93022921448738        3.34538232077578
C            4.42430064299337       12.09259554302774        3.30497785560854
H            3.97313840180152       11.27391316683540        2.74448959758993
H            4.16266241055167       13.03517309245924        2.82412921848619
H            4.01874085044878       12.08891442649223        4.31668123482405
C            6.51811202008190       11.91645772739148        1.91707097076590
H            7.60364783547638       11.81948994616593        1.94560536741791
H            6.26304415806990       12.84237988794279        1.40159106890768
H            6.10972934422691       11.07536701713878        1.35695117599452
C            6.58003257116681       13.07711441769098        4.14985746324117
H            6.21398991870264       13.06534149045478        5.17627775908647
H            6.33018472211101       14.03656943733714        3.69691254056427
H            7.66510679214153       12.97164726517915        4.16951386794096
C           11.06403083635547       10.65892155644300        1.53402620852988
C           11.94814464869319       11.46212723032863        1.30075514743927
C           12.99308019471236       12.39799632894023        0.87558959785021
C           12.76959451550389       12.73595844369683       -0.60845484016392
H           12.82150145786454       11.82996333884348       -1.21199061867507
H           13.53414832601714       13.43275532655339       -0.95296409482078
H           11.78947249921275       13.19187722130101       -0.74679280734607
C           12.90391690228246       13.67868811000810        1.71877630027366
H           11.91479810906640       14.12591336552506        1.62372310319162
H           13.64977228838601       14.40357179952671        1.39128297765555
H           13.08125793958422       13.44620595789511        2.76976806179244
C           14.36919091042729       11.74024422592464        1.05639838969595
H           14.53778826603863       11.50666183483380        2.10795718046775
H           15.15852774215479       12.41239287346204        0.71841554441082
H           14.42508273453911       10.81375629410960        0.48470713187196
C            8.03213540599197        8.05106781945964        1.70629065063063
C            6.98584886456773        7.49372736571280        1.42644757575926
C            5.71968370353081        6.85582527721240        1.06697547019414
C            5.64999944852715        5.47529532164302        1.74062242295315
H            6.46122875688633        4.84057847739630        1.38403118634099
H            4.69964516817018        4.99134610749787        1.51415100769306
H            5.74273140428786        5.58044816983644        2.82214043557022
C            5.64931484532551        6.69490438992808       -0.46058594495956
H            5.70614729804031        7.66983244154318       -0.94425325957728
H            4.71199737750230        6.21549550165113       -0.74371922481597
H            6.47891164924347        6.08186141329141       -0.81242526156374
C            4.56275767477272        7.74113134000914        1.55793470563783
H            4.61687019932503        7.86167255552681        2.64041532163094
H            3.60436596430020        7.28843917114874        1.30282986171728
H            4.62127669029830        8.72816301769462        1.09895953574514
C           15.61219015542363        8.04314122488555        7.66981581320192
C           16.20947785292027        9.07215733799632        7.92106249837940
C           17.07457836890762       10.21000336868214        8.24489820393015
C           17.84543961692438       10.61269570493532        6.97797208498358
H           18.44058840882722        9.77537598580608        6.61431271248510
H           18.51033953737937       11.44950467721668        7.19297419730103
H           17.14575103440660       10.90792239506097        6.19622830518334
C           18.05507248318280        9.77320355391418        9.34646065022119
H           17.50659259498561        9.47975134556052       10.24158510704274
H           18.72527706096538       10.59542556261757        9.59799333604937
H           18.64964643999434        8.92501070989661        9.00793577308907
C           16.23232570893573       11.39232309680184        8.74381223864723
H           15.55622773554140       11.72648849637187        7.95669340045263
H           16.87680883126554       12.22629067855891        9.02339171873255
H           15.63984095533325       11.10004633746119        9.61039486933046
C           14.22311855853875        4.28970025960409        7.63389396375593
C           14.37459281869232        3.35475316485333        8.40296118632887
C           14.53527838559262        2.24185421098365        9.33635716997893
C           13.40169655392567        2.30421347608256       10.37349782898568
H           13.43805880923316        3.24816458831555       10.91692188185806
H           13.49471851332803        1.48389338543979       11.08517432830415
H           12.43443750684730        2.23088608237795        9.87618582760991
C           14.46872401553882        0.91693487782857        8.55874979524381
H           13.51005522686926        0.82773335898626        8.04836105340561
H           14.58063844019601        0.07590982016422        9.24315754274492
H           15.26384770927502        0.87475858632252        7.81469527286671
C           15.90056291476364        2.36195745230176       10.03431114981677
H           16.70412428856308        2.32678139731789        9.29894612151809
H           16.03164504918319        1.54099823109948       10.73937606785930
H           15.96679568190914        3.30415797611738       10.57719789123963
C           11.75912546119239        4.18060212019227        4.43882990660526
C           10.97911286486952        3.84306023264634        3.57267537479281
C           10.01622920699288        3.44362857134499        2.54297949828934
C            8.62881775120452        3.34358773547880        3.19759441817959
H            8.64713094778942        2.63081554369657        4.02196415713478
H            7.88743803602976        3.01864630534462        2.46735327472231
H            8.33043334449791        4.31688005368737        3.58988750316541
C            9.98528269801847        4.50270112142452        1.43120643857776
H            9.74230002187853        5.47912109951312        1.85217855832529
H            9.23013476870973        4.24816671353816        0.68710085600889
H           10.95546981686455        4.56788974089914        0.93965919054189
C           10.42245631139930        2.08154514675620        1.95873631928624
H           11.41709607859807        2.14343190725607        1.51763306903245
H            9.71345985815507        1.77760386970878        1.18832862348732
H           10.43506194756481        1.32404045208921        2.74241099925507
C            9.20565448333897        7.08999907341244       11.47514663310779
C            9.01080505304748        5.90894484542601       11.70756538784738
C            8.79186393827751        4.50731558548418       12.06941781286884
C            8.37821552427411        4.43191432165438       13.54883496424666
H            9.16266557170679        4.84995987121619       14.17940160149385
H            8.20927645746264        3.39443054671076       13.83828914511576
H            7.46087568260363        4.99714231722942       13.71192722031710
C           10.09481430258951        3.72236788946134       11.84925681765089
H           10.38284295593294        3.76456602082385       10.79797767760514
H            9.96171802522365        2.67765363833032       12.13133978006704
H           10.90158220523662        4.15026152438845       12.44430305345890
C            7.67725232518407        3.92445509922158       11.18450349854280
H            6.75483087206714        4.48998903228780       11.31523669550412
H            7.49289819974063        2.88261931502936       11.44808483875168
H            7.96817348674266        3.97267725503190       10.13453490422743
C           10.72281829909036       10.82847618353082       11.48537198908371
C           11.10224591768434       11.92751293072691       11.84641901908664
C           11.56421960972454       13.24375005760297       12.28490644515810
C           12.98573213279761       13.45808892580498       11.73609053913819
H           13.65972185056959       12.69242026325600       12.12023221775566
H           13.36045507839221       14.43795000772679       12.03307522705374
H           12.97673614436319       13.39712595464029       10.64758868624429
C           10.61880731594768       14.32190419954624       11.73332315969498
H           10.59638408404775       14.27663327219234       10.64365247645171
H           10.95822513631659       15.31346283848842       12.03395359533006
H            9.60695331883535       14.16573376598122       12.10639362003350
C           11.58174856591781       13.29305880534188       13.82141521525514
H           10.57861622262213       13.12876051783080       14.21428933953481
H           11.93740278372303       14.26640660666579       14.16013345829804
H           12.24182488190146       12.52036834056778       14.21514127314203
