248
 energy: -368.838378406656 gnorm: 0.000549056755 xtb: 6.5.1 (579679a)
Au           4.80239855483370       10.11525174338498       14.11124945733484
Au           7.07487211213369        9.15001631444712       16.20753300429272
Au           7.80878081827009       11.65265262154115       15.35676197927252
Au           2.30955816738441       11.12349584495591       14.91867445204481
Au           7.24762551890993        9.14645476896332       13.21460330846014
Au           4.11630046092245       10.00976410615624       16.81652972040720
Au           4.72031115373207       12.46096169382173       15.51391125629593
Au           5.37869744023582       10.27805765227253       11.29694582376332
Au           2.71911595345205       11.29237384456732       11.84178181137351
Au           3.98175486728820        7.33477012390070       15.56859612096339
Au          -0.19504962141999       11.19470037039207       12.29454060195316
Au           2.01220027846874        8.75180687846167       12.74917278017515
Au           4.92179541549609        7.75108813841220       12.68779176589014
Au           5.59344797664467       13.09815012928262       12.66463040727863
Au           7.64749017456572       11.19592002327286       17.98503586898108
Au           2.90454651961704        8.96413312937819       10.26182678542120
Au           8.23118276629149       11.12360053577601       11.15461347604383
Au          10.46577314349807       11.79688573330066       17.13140896091423
Au          -0.11079676967822        8.67590387056728       10.46654709520493
Au           7.66146392762359       14.13308326176705       17.09365990989604
Au          10.10943040545594        9.48561320969554       15.12141961065328
Au           6.02691224859900        9.46523206650152        8.61666760692786
Au           5.61016733927991       10.58147538492810       19.91655574181999
Au           2.34705779776187        6.09445915263008       11.16183631343892
S            3.34870728270361       13.64109924819300       12.28948845573205
S           -0.11724482857266       11.43834489490628       14.63408676831285
S            1.83789060289870        8.23726192193600       15.15325248891790
S            7.90095033247552       12.62275147390727       13.04537284696050
S            6.26655020586619        6.84222223267691       15.85120179081791
S            8.26044602177288       10.08002819582948        9.00057642927150
S           -0.08880711665924       10.97839055365442        9.93786003124300
S            3.58542372497065        9.63775037063504       19.17857349045703
S            0.00511645703681        6.37318800960308       10.98751522706638
S           10.02217431967977       14.11785164677820       16.90980763012997
S            5.32728771508997       14.13402487002875       17.21044344685438
S            9.70350694068235        9.34352151092057       12.79014491354252
S            3.94746664226989        8.55422306404046        8.07030221098128
S           10.72414417815086        9.46805229845968       17.40787372475024
S            4.64818316452862        5.71973370064623       11.34632001375453
S            7.70132737272043       11.52900442820349       20.42745798541729
C            8.32764630645430       15.25689670585142       13.63376939871785
H            7.32441081597445       15.50024838790864       13.28662695511760
H            8.95612919057284       16.14412607603523       13.54490339849370
H            8.27540316428781       14.97625009421214       14.68435337640564
C            8.91051046796536       14.11745261152413       12.80960348513710
C            2.71735627076870       12.28441685398569       19.16294073300338
H            1.93581118363869       12.99448293700490       19.43971415488792
H            2.87400207380939       12.34355864689186       18.08718337418995
H            3.64475089140952       12.57521647098705       19.65576419113091
C           -0.10529783609917       13.41233746929163       16.45751216840567
H           -0.35471151931071       14.43220392292177       16.75495258700820
H            0.96137595164148       13.25380299383692       16.61276828436924
H           -0.65384425344127       12.71672310770541       17.09193106770857
C            5.26726428786853       16.23262901607857       15.39698830514215
H            6.34377992933335       16.36877529765196       15.49262701652988
H            4.81968759363224       17.18469863376124       15.10610762984200
H            5.07639283463542       15.50414961766398       14.60905675943817
C            8.68364135778026       10.19706257520896       21.17744750937316
C           10.32563434586555       13.78790018139158       13.27533511428520
H           10.33080495683229       13.57886181928956       14.34485281194159
H           10.98721608840692       14.63454579001302       13.08600383943998
H           10.70910959427113       12.91659702569550       12.74553363269817
C            7.98709537806319        5.96141383595196       17.70868349175408
H            8.50674862060698        5.48656338377136       16.87690874150139
H            8.19617259453073        5.40177635499948       18.62174075237087
H            8.37304614207048        6.97415254267040       17.82323417059417
C            6.48305545991392        5.99931014491317       17.44172857980633
C           10.27670546467647       16.39873858359113       18.31005564718678
H           10.67115331345538       16.81880383035400       17.38528299144501
H           10.69109465206270       16.95251706011513       19.15403857334584
H            9.19357176134476       16.51865263228462       18.31084052091682
C            4.67568836624141       15.75137138021044       16.71744120661657
C            5.00593668710466       16.73779986958593       17.83667064651965
H            4.61110953137028       16.37429058482984       18.78470276251138
H            4.56721285164299       17.71391145155825       17.62259383518304
H            6.08560798918274       16.85160139103095       17.93151112718409
C            0.34865102039418       14.12495180738714       14.10183636962143
H            0.07520360072503       13.99139983985727       13.05510509137215
H            1.41603368712735       13.92720781847086       14.19904034146078
H            0.15857287861613       15.16275120674530       14.38143663906484
C           -1.67469942111698       11.47589207795963        9.20227870092967
C           12.57718807477226        7.52688564543286       17.21764149130173
H           11.93804291133602        6.97467664263684       17.90594737713322
H           13.60543687957917        7.18195407609346       17.33846048473459
H           12.25348582178838        7.31502113828234       16.19880115915932
C           12.48455489485464        9.02635763356425       17.49839227708772
C            4.00182147363972        9.79247873024375        5.66169846454989
H            3.50204397680147       10.39959292216151        4.90489748867708
H            4.17062761898617        8.79508383864651        5.25755506868586
H            4.96812584764959       10.24281248150146        5.88859211839419
C            0.49865219500562        6.82379710146910       17.03363432837487
H            0.48967657390522        7.74156979545963       17.61987007791759
H            1.41120449052602        6.27438910666530       17.26397737734694
H           -0.36011509419776        6.21531809436300       17.32201160101212
C            8.12646802873940        9.95233588778823       22.58026513754997
H            8.10291121777576       10.88445635097625       23.14390209433939
H            8.74884560892313        9.23281241379968       23.11547066147582
H            7.11184215082852        9.56039826992033       22.51646816668086
C           -0.45997936092699       13.18357199510939       14.98926312975692
C            3.58293834844653       15.99250535944577       11.01064063668289
H            3.50414638031069       16.59091883823025       10.10150275487466
H            4.58837405782643       16.10057763468185       11.41671952254125
H            2.87086725710719       16.36981134678303       11.74373410320866
C            9.76525497142517        6.62386611146439       13.25353669351410
H           10.24484560533156        6.80031977192885       14.21596476947763
H           10.04565206538198        5.62975084519341       12.90116830886874
H            8.68564369813863        6.65194203442902       13.39881182516279
C            2.07907513279174       10.80534954653788       21.07697473988219
H            1.25708956345640       11.46416284080082       21.36233151023725
H            2.97831450743363       11.11587313572478       21.60799160989074
H            1.83388141933500        9.78672698946149       21.37590116527572
C            2.31035032624574       10.87047219945400       19.56706805437699
C           -0.28425250394312        3.98751375722982        9.77271794526497
H           -0.64694428841316        3.38944797068126        8.93519356550727
H           -0.81939066171061        3.69153486210225       10.67435492288812
H            0.77628748848440        3.78224643594919        9.91568703541364
C            0.30153387109649        5.90411084559324        8.26979641201000
H            1.36560480233403        5.73465996504774        8.43170339967252
H            0.14809382682733        6.96439822458503        8.07209606207201
H           -0.01450716749675        5.33624199526108        7.39308959688487
C           10.11906854467506       10.71538510028282       21.26874165808357
H           10.51566804824909       10.89473786910466       20.26990238529879
H           10.75609849020575        9.98532807832337       21.77127357642934
H           10.14761770698619       11.65017182454090       21.82772890022401
C           -0.82709539837380        7.93739323205676       15.21169766400679
H           -0.87910908152465        8.12855660571984       14.13970205061611
H           -0.82581412507696        8.89676593558993       15.72955897215815
H           -1.71304614037758        7.37452828865126       15.50985368532067
C            3.14795246431569        9.71413609659864        6.92647581238823
C            5.93327428668143        4.58227175290753       17.28505163343171
H            4.86168546325264        4.61433551296238       17.08950822064399
H            6.10678807605226        4.00716837042848       18.19611923175680
H            6.42270856881335        4.07787528868554       16.45239234891053
C            8.44536870763939       10.77592580269299        6.40178842696594
H            9.13646130407310        9.93772030054384        6.32222709756318
H            8.69582255673775       11.51324090272341        5.63738342466907
H            7.43546072294440       10.41091515322825        6.21746545741893
C            2.97957779686722       11.10440328528323        7.53169611414182
H            2.52520832157655       11.77930401482183        6.80413325844101
H            3.94833029641422       11.50712030260817        7.82552027674775
H            2.33738541650276       11.06326972975340        8.41164943371789
C            7.50335586021171       12.52262611545909        7.92781859553745
H            6.49966411759308       12.13607386193269        7.75125062925665
H            7.70603525391432       13.31341172221911        7.20367715059451
H            7.53403879535367       12.95044495484564        8.92921089225058
C            8.64939835538379        8.90247048050607       20.37125523820444
H            7.62557469362481        8.54426959565110       20.27290821990077
H            9.24215969473971        8.13358664485655       20.87070884893195
H            9.06055142808003        9.06034185207337       19.37394536520213
C            5.76396314058153        6.72275892776598       18.57515187076183
H            6.12804049475648        7.74569581782396       18.65989952814959
H            5.94052084251074        6.20987154333704       19.52203176382190
H            4.69028159726186        6.75790212853236       18.39211204512899
C            9.94233596188810       11.94898607033175        8.02631639966404
H           10.01215561205266       12.40141221623833        9.01484790960415
H           10.18607460374879       12.70427749250456        7.27762670272079
H           10.67189115930046       11.14235028725969        7.96360512341525
C           -0.50076887366781        5.47367390571655        9.49344053409045
C           -1.73615278711753       13.00131559057151        9.26645886821611
H           -1.73526799451492       13.33438440432453       10.30400983229375
H           -2.64423233780045       13.36368611566768        8.78177356065653
H           -0.87313457989589       13.43491052378946        8.76205696165464
C            4.94310742534615        4.27250851464093       12.40258764996606
C           10.19153118060815        7.68122121209748       12.23923251453847
C            1.03867391834466       10.46145407871048       18.82642389540295
H            0.75304963281341        9.44664915538499       19.10193508492037
H            1.20263693312329       10.49485068248720       17.74992704502759
H            0.21856905306633       11.13689017445424       19.07586750189525
C           12.16077517140945       14.75037877803405       18.42807019194711
H           12.42081179736294       13.69556580044581       18.51442622540376
H           12.59405463666940       15.28794433972595       19.27309230367000
H           12.59099850759770       15.13931418223670       17.50568753209031
C            6.33438215699226        4.42790361679899       13.01547845817102
H            7.07238306558156        4.61385040897198       12.23572210024495
H            6.61264045878747        3.52009731702512       13.55368079465778
H            6.35072800713089        5.26365915838526       13.71626820512809
C            9.51790428388660        7.40835960240031       10.89633079272061
H            9.83171186911631        6.43741138812548       10.50961070003813
H            9.78062050728263        8.17583588727091       10.16865336411197
H            8.43437960342113        7.40250300222717       11.01373158611344
C            0.49897717074003        5.86772825468443       14.71682617959410
H           -0.33387933895805        5.21229250899449       14.97767750438506
H            1.43237791203483        5.33738354196327       14.90376343665121
H            0.43599699600843        6.09801092968213       13.65326879547033
C           -1.95563702760010       13.40795720845801       14.76738349084854
H           -2.53388337944100       12.71032376012581       15.37234219791377
H           -2.20776317802641       13.24919898769844       13.71900326164735
H           -2.23085083276425       14.42713328470943       15.04411829019010
C           11.71124444500941        7.68597515749810       12.08254333205539
H           12.18719791110946        7.87974301997544       13.04354630582615
H           12.01415046741518        8.46332364792415       11.38187320672728
H           12.05550566738340        6.72041598857252       11.70827451482229
C            4.90868417652592        3.05615780421836       11.47574910511752
H            3.91875168406964        2.94737162775569       11.03361176883596
H            5.14650733338479        2.14912066778043       12.03396527342242
H            5.63577163680492        3.17690138837345       10.67355044646895
C           10.03622571976438       14.31521785252982       19.67924368372935
H            8.95134951900142       14.41677036167801       19.67236889668692
H           10.42908390061154       14.81974518245186       20.56360721240710
H           10.27627156887273       13.25528242909797       19.74674293666207
C           13.32999436872587        9.80431245108361       16.49579104730332
H           12.99785499992228        9.60032416303359       15.47821596175128
H           14.37855199153956        9.51496185132529       16.58527889527948
H           13.24644819770149       10.87548219573071       16.67778179112120
C            8.53417408226574       11.40594973537035        7.79100421001375
C           -1.65247306037569       11.00418964278228        7.74885906565743
H           -0.78108040338025       11.40936523635076        7.23506443357846
H           -2.55269014775024       11.33639750931829        7.22914639482864
H           -1.60487095608658        9.91624665456011        7.70738600310124
C            0.43793109837311        7.14784333339648       15.54320691206599
C           12.94568823221392        9.32858134961625       18.92381793923568
H           12.87620010227604       10.39762192725413       19.12306974341473
H           13.98128796101085        9.01285484028478       19.06099727944837
H           12.32032575282582        8.79936552439713       19.64209863973173
C           -1.98598802138367        5.75929360073862        9.27788774203282
H           -2.36325819512260        5.17924527608510        8.43411936868697
H           -2.13916170703657        6.81826493201993        9.07076738373423
H           -2.55417636117366        5.49457302846133       10.16895710971719
C           -2.86281857271701       10.86733696258264        9.93899311379317
H           -2.81010704863445        9.77910472616010        9.91251697630416
H           -3.79655851011368       11.18326067774343        9.47052099277969
H           -2.86877940007735       11.18746651514039       10.98056866627981
C           10.64253002242840       14.91903000341067       18.41708973086271
C            1.77868574195043        9.12007100344250        6.59901520624885
H            1.16393435858735        9.08319937857543        7.49773957056871
H            1.88917079359329        8.10816429326313        6.21077236114995
H            1.26857089728475        9.73112184762941        5.85258422116774
C            1.87998607445858       14.36425153514126       10.14731439170692
H            1.14430646315409       14.69117093624906       10.88156251384832
H            1.68526968160767       13.31942676886487        9.90534907454158
H            1.76140483667200       14.96122609007106        9.24155478918203
C            3.89740087284198        4.12066863412458       13.50101147692354
H            3.88057686074175        5.00747023149260       14.13365275992835
H            4.12867725714543        3.25567706523483       14.12498336280027
H            2.90564350011795        3.98608971432624       13.07011958544010
C            3.29328247669405       14.52284376135456       10.70492648639247
C            3.16278180645957       15.58853943973935       16.58305794128335
H            2.93439345762297       14.89355190139297       15.77548380551774
H            2.69408755021206       16.54867525141402       16.36113043834108
H            2.74079046087790       15.19601360943882       17.50754300820645
C            4.31155277792419       13.98224464540706        9.70639054681641
H            4.19610571021875       14.47988033333376        8.74204429714938
H            4.17193932566568       12.91142618478424        9.56805727486839
H            5.32661897080014       14.15216174570036       10.06511965251507
C            8.90642940602364       14.49891006870601       11.33320645492710
H            9.35677071494798       13.70760508830667       10.73587215090509
H            9.47901325486336       15.41543613736720       11.18314296786391
H            7.88715174866894       14.66144071833966       10.98385237634102
