264
 energy: -477.683784616774 gnorm: 0.000738704294 xtb: 6.5.1 (579679a)
Au          18.21456086416877       12.04820536326494       13.95589612672399
Au          18.47163886688617       13.56084001197896       17.24491972623007
Au          20.24103682279725       14.06421255891829       14.86031153954934
Au          20.88426544259358       13.48417300359876       11.99154485332596
Au          23.01469754171503       13.19010921525255       17.26824408004209
Au          21.53744282323457       15.72432813341680       17.08421484389802
Au          22.49014142213023       16.11061546384801       14.23605850388887
Au          20.06662298060303       17.69895331112961       13.69387092517995
Au          23.50592973869655       18.66960504102354       12.88972109809371
Au          22.26993906932600       18.18763726386587       16.01276243983349
Au          24.21404183387753       16.04524653762890       16.42012686821021
Au          23.27572830978793       16.05687641938463       19.59295118177196
Au          26.37897328623243       16.25224740772645       19.20727382342945
Au          24.48637708916901       18.59022213035312       18.25742492058989
Au          25.53120750648688       18.72545706597205       15.59279111512720
Au          23.02737248194511       20.89778332993870       15.11215952781727
Au          26.51353677695260       21.85045666152762       14.55667867328874
Au          25.27444968360856       21.03848215400298       17.11710776169787
Au          27.20007574261363       18.88687696918591       17.83477013514767
Au          26.51057786362939       19.41834995878728       20.68074595220034
Au          30.68403849419101       20.43548307877773       18.39738468590101
Au          28.09764066346312       21.83652579405541       18.01031235094600
Au          26.33787796036156       24.16308935758279       18.79506352556658
Au          29.97099671124434       23.93425358591073       19.03718169681767
C           15.69623606791873       12.36742144059675       15.94147223499344
C           14.90821014079029       11.82882026165661       14.92654695983845
H           15.33748909568151       11.10364136469526       14.24545142615980
C           13.58543747975173       12.21888259075670       14.78564410896255
H           12.98374053613600       11.79407159690039       13.99011559200180
C           13.03338044438156       13.14828515233279       15.65799504042970
H           12.00092601993894       13.45683971200949       15.54348626029754
C           13.81182592969456       13.67771621581072       16.67776774016717
H           13.39020291834252       14.40120049332542       17.36631118166613
C           15.13437771023010       13.28684243533256       16.82165509679591
H           15.73683482249374       13.69662816975945       17.62329437626407
C           19.54692652747469       10.52487785482377       11.45603231164487
C           18.71706076027111        9.44375316083100       11.74528137877705
H           17.73419529296431        9.62272609322374       12.16479232862391
C           19.14543130918326        8.14790396880788       11.50245475129336
H           18.49111621055139        7.31524364500800       11.73463782775344
C           20.40545731698240        7.91681719184895       10.96525708978877
H           20.74183792840051        6.90321911081415       10.78159484819109
C           21.22982520090172        8.99194141006846       10.66408786264830
H           22.21374278649188        8.82309206146358       10.24141651218978
C           20.80194968977546       10.28893487547412       10.90397123078109
H           21.44527208209845       11.12601602739198       10.66115391116991
C           21.09389670267556       11.04077810077440       15.72736172996660
C           20.65037487255032       10.82977898856096       17.02841711584478
H           20.91654757366631       11.53361615332589       17.80801754786540
C           19.87613130699696        9.72101292310143       17.33289223360823
H           19.53771531297077        9.57048114248833       18.35181753486685
C           19.53125624177848        8.81451221417744       16.33937393260666
H           18.92157429752031        7.95108316639355       16.57780186636450
C           19.97136212234149        9.02054559247222       15.03896891493287
H           19.71113251456174        8.31751989058887       14.25584440846308
C           20.74708550172319       10.12966761943613       14.73097455021186
H           21.10830255510846       10.28383324669506       13.72153436434597
C           17.73930544121512       15.45593939912177       13.28798744109571
C           18.11940394539942       15.61294919220705       11.95935321419474
H           19.05206617951574       16.11084908391912       11.72290949886977
C           17.30813223991640       15.14228955571576       10.93874439331636
H           17.61792573048280       15.27357262187078        9.90809585898379
C           16.11191473495791       14.50253847506117       11.23511256117657
H           15.48133899191837       14.12991088932840       10.43661099286384
C           15.72817651278186       14.34274890075817       12.55961636901461
H           14.79467407350207       13.84799309814236       12.80270070107455
C           16.53775042971176       14.81453272811227       13.58389009426676
H           16.23202280624048       14.71046274457577       14.61770379048050
C           24.13126185437998       13.85834932789962       12.41257071210200
C           24.03235577543809       12.47174347380481       12.43860698831927
H           23.06410762431978       12.00060040683175       12.31751133476086
C           25.16153547630577       11.68971218766297       12.62894819255300
H           25.06745862703120       10.60957740367521       12.64140860628054
C           26.40399602901347       12.28503469229667       12.80121907854996
H           27.28613318236801       11.67385130099334       12.95108229463568
C           26.50560335699861       13.67104629066940       12.78983688294285
H           27.46916099065553       14.14781049709201       12.93253774203064
C           25.37858975723523       14.45301885867393       12.59574580254450
H           25.46506574334907       15.53379783665026       12.58871601172029
C           18.62976412683123       16.61391165192359       18.48903091431912
C           17.38207695702836       16.65484039528065       17.87595127476609
H           17.02035295563471       15.78616788378716       17.33842274905958
C           16.60402778740823       17.80072578079012       17.94192971067280
H           15.63054289864521       17.81402151105034       17.46458201883382
C           17.06848558288559       18.92343611374828       18.61410712842979
H           16.46109880092569       19.81947182762343       18.66332590092926
C           18.32236801273849       18.89366111201148       19.21216636652452
H           18.70047217570619       19.76868246870129       19.72850816573580
C           19.09850823358488       17.74732478332878       19.15176619305504
H           20.07777125883232       17.73182280313680       19.61640768016546
C           22.37879562454554       12.89291153712864       20.24093415318571
C           21.35175322381271       13.56058214979729       20.89561785107712
H           21.35248527805642       14.64270129019699       20.93802371780689
C           20.31038771905019       12.84816557223006       21.47070462522086
H           19.50857469276221       13.38264499677871       21.96713852856019
C           20.28800199055628       11.46222084259687       21.40176195098794
H           19.46946145136020       10.90747340320264       21.84512883816188
C           21.31999687003132       10.78986281692544       20.75987143964462
H           21.31401721757352        9.70718547160163       20.70385324352946
C           22.36064684198888       11.50000361796997       20.18173030848534
H           23.16600464803043       10.97805201411418       19.67889250584040
C           20.82403645355772       18.42938758561190       10.87477582992957
C           19.54633051653487       18.64897018811782       10.36269180270127
H           18.87468964593381       19.32394526233141       10.87964335280802
C           19.13785273650935       18.00319918366229        9.20603227503521
H           18.14045877044201       18.17745797756491        8.81853316779681
C           19.99841840390206       17.13075716136935        8.55209518319470
H           19.67522350863558       16.61835385775055        7.65356943432160
C           21.27355369398467       16.91731964242878        9.05706840634477
H           21.95191256365746       16.23622204750146        8.55606651127003
C           21.68617397995443       17.56545945778538       10.21123461112541
H           22.67603662514455       17.37791388169220       10.60914132127064
C           26.39668849101344       13.60342521192616       17.18213460326128
C           25.84581707576015       12.86682635596007       16.13404899556203
H           25.48868667404454       13.38273345028196       15.25217053773000
C           25.78090931897409       11.48201535935102       16.20916592698289
H           25.34985049292129       10.92445289688561       15.38565640492432
C           26.26273482924309       10.82118696551600       17.33086939523774
H           26.20359690502675        9.74109059299179       17.39438639583844
C           26.82145952435551       11.55280042185847       18.37061076601163
H           27.20179704212055       11.04470650384255       19.24950119244765
C           26.89190856693432       12.93537445228290       18.29687568244899
H           27.32431451628411       13.50237800489489       19.11278290815658
C           26.77538643458984       19.01298921680748       12.49668160950982
C           26.51500441026310       19.43432241462198       11.19577971861456
H           25.62254643102554       19.08551017054754       10.68991004015524
C           27.38568709576025       20.30220585304093       10.55557033103426
H           27.16705881363495       20.63059066483104        9.54573143215747
C           28.52866632213242       20.75477504161978       11.20233230375270
H           29.20478908284868       21.43730736854699       10.70112750554092
C           28.79867385466466       20.32824385102876       12.49505800741398
H           29.68714309153834       20.66984281233305       13.01371950785693
C           27.92639248102418       19.46184973559885       13.14047970423465
H           28.14504455640629       19.11926372807719       14.14371385918451
C           23.17737683560494       19.02585912245546       21.21723882318618
C           23.52261919251151       20.37819513394800       21.20714407758433
H           23.41245204159223       20.95753908376351       20.29727284787921
C           23.99971255915798       20.98324367956541       22.36189807495261
H           24.27012918737412       22.03272293451235       22.34204471723826
C           24.13472120545759       20.24717112031825       23.53214540629376
H           24.51612348345324       20.71851648250099       24.43029339706555
C           23.77976459564715       18.90481316179495       23.54519418187595
H           23.88245456246456       18.32418626933910       24.45494165300715
C           23.30061907454823       18.29639218486264       22.39510585598261
H           23.03297692676238       17.24637793833445       22.40394198630686
C           19.90133130419016       20.51074225740483       15.70477723525718
C           18.89886806899255       19.55322240566591       15.84867905929460
H           19.03571112053336       18.74336847398608       16.55283378572208
C           17.72687246048616       19.64763347809718       15.10915020819343
H           16.95593418776989       18.89652606407324       15.23688904112803
C           17.54996125120094       20.69260405924758       14.21265122380035
H           16.64012646325040       20.76087355620087       13.62806564129901
C           18.54692702199876       21.64869922116353       14.06818476068475
H           18.41874977021328       22.46714892229298       13.36874806774354
C           19.71300761044593       21.56230146319701       14.81261174905940
H           20.48739407632680       22.31126564405118       14.69783110294747
C           28.06146445077684       17.14200774107274       21.95098563063581
C           29.15382191253545       16.94264987563603       21.11470854807629
H           29.00429920022026       16.77738443810780       20.05446930136144
C           30.44080799087639       16.97562008620755       21.63031836115196
H           31.28505777388337       16.82618700483011       20.96699115803321
C           30.64675219256915       17.20593303092283       22.98386815354788
H           31.65323926066596       17.23384773687097       23.38460897997738
C           29.55605579175477       17.39885825261963       23.82199700937912
H           29.70797879964007       17.57941455607555       24.88010020886741
C           28.26854401975103       17.36971875234131       23.30923799980219
H           27.41503369440816       17.52793908525824       23.95766764968116
C           23.89792892245107       22.97546369550725       12.73648788295887
C           22.55795112649244       23.02983396828837       12.36119332983650
H           21.93334487353535       22.15049192995613       12.47383146329423
C           22.02997865897114       24.20192658348575       11.84451952048105
H           20.98434579981933       24.23927420903908       11.56089617303346
C           22.83526089836558       25.32369200743172       11.69262728069350
H           22.42033226583264       26.24122579214441       11.29235398253977
C           24.17438795614947       25.26491712859407       12.05488126209754
H           24.81052730941444       26.13435732604398       11.93447666257794
C           24.70643548514236       24.09361955055022       12.57435069498755
H           25.75113182752282       24.04724503003437       12.85921721359279
C           29.95667912793650       18.04653119723420       16.21675841976288
C           29.27281462488503       16.99314863867237       15.61162661338617
H           28.52870559389214       16.44090566062946       16.17433747594986
C           29.53563492591928       16.65050413401643       14.29537993302642
H           28.98966877051592       15.83334129701729       13.83687567911573
C           30.48765017280473       17.35119023568818       13.56574326264736
H           30.69059966159123       17.08578938160742       12.53498810498686
C           31.17160648279883       18.40035616304296       14.16495264200648
H           31.91602189789734       18.95595787709952       13.60570683206841
C           30.90619479918192       18.74740895073366       15.48123216590216
H           31.43981258556042       19.57083232010503       15.94147482872376
C           28.98117499745959       23.76545507943867       15.60298740324206
C           28.02779815493270       24.76255980075600       15.43388779066573
H           26.98982591899028       24.49044587586517       15.28337461563141
C           28.40031143590201       26.09755465815355       15.46205108234943
H           27.64611535730066       26.86569638753031       15.33474636649724
C           29.72878497217395       26.44893184614465       15.66020682527545
H           30.01715786979751       27.49299469589099       15.68882407086301
C           30.68594209709503       25.45607110395336       15.82071199357094
H           31.72731537508427       25.71853399501596       15.96845940815335
C           30.31568714614916       24.11895044400387       15.79546946430780
H           31.06002884018691       23.33975308152223       15.90311075057787
C           28.57645710266490       21.77141157837362       21.29824077294971
C           29.46092354944357       20.70679967938787       21.44713470220642
H           29.24791792140040       19.75849818013000       20.96886374628804
C           30.60252861809185       20.85012826328458       22.22032417269871
H           31.27719620741393       20.00915052421596       22.33442428795134
C           30.87969328697559       22.06121877851748       22.84119324628004
H           31.77678497877246       22.17321281616631       23.43850408567869
C           29.99998160145401       23.12456695911768       22.69624974578559
H           30.20222534568079       24.07346400891824       23.18023196632662
C           28.85123088903989       22.98162066859226       21.92922794896582
H           28.14754582255049       23.79883648802022       21.83943263486733
C           23.38176008704087       23.81699686057324       17.28092557800778
C           23.92303843657428       24.65768901443903       16.31436780047640
H           24.99728754913057       24.79204516529158       16.26398298567675
C           23.09603235729579       25.31708450246281       15.41914109928038
H           23.53002710803800       25.96808946672603       14.66863602737694
C           21.71980806029567       25.14172600215594       15.47876950741705
H           21.07557049720015       25.65374534505331       14.77348025670429
C           21.17498408479319       24.30825374463859       16.44676955959038
H           20.10086085810791       24.17454870181974       16.50806879725880
C           22.00089074995027       23.64547732457745       17.34283074750334
H           21.58070385751840       22.98506181948411       18.09176065442145
C           32.83341601170054       22.93066610408808       17.89891175437966
C           33.28271545125233       24.24968387023331       17.91379577510969
H           32.92357367491402       24.92686159913642       18.67961162077331
C           34.18077286893111       24.69286840622688       16.95536433645301
H           34.52232795499782       25.72157482594817       16.97648819482621
C           34.64109908599453       23.82469679834894       15.97344898863811
H           35.33942791451695       24.17357848054065       15.22186881033917
C           34.20207146998570       22.50817243019770       15.96123010094737
H           34.55679643524386       21.82200078893262       15.20056776387546
C           33.30542016972988       22.06202679139394       16.92041640932376
H           32.96813679014718       21.03250493007506       16.91178585520833
C           28.25515279173306       26.10912984679648       20.69595008743424
C           27.06978808452986       26.22943187039354       21.41537807863843
H           26.13443415812052       25.93089701341020       20.95705958564205
C           27.08320823377273       26.72489687718183       22.71043794034798
H           26.15295686068851       26.80831539349878       23.26088841339158
C           28.27985219858455       27.10670413154854       23.30098358213628
H           28.29032936486580       27.48819072357952       24.31523031963025
C           29.46443194222913       26.99593611832071       22.58413695851421
H           30.40407455372875       27.29404604702599       23.03545938129705
C           29.45298946509415       26.50363997514549       21.28866047737062
H           30.37777521191424       26.41941906955666       20.73015192620020
S           17.34674271237398       11.81878317176997       16.12737840575778
S           18.96030768172043       12.15005707401890       11.73022323059178
S           22.05126181001151       12.42637536269829       15.25228847735342
S           18.71790679022804       15.99882390160703       14.63351845022139
S           22.75840164850962       14.89678247556250       12.09866480233396
S           19.61504498726418       15.16901101995264       18.52310095337711
S           23.71978864588215       13.71655109864562       19.46223351433661
S           21.24812939285599       19.25942707581907       12.36620244380694
S           26.49543043074645       15.34062533659920       17.03199922982386
S           25.70986450947098       17.88154419707969       13.29554134521019
S           22.54488556908547       18.30872314576137       19.75188690815206
S           21.34501480756177       20.39242813057814       16.68748195055762
S           26.39402034947250       17.16823556802691       21.38722896065494
S           24.53710873890552       21.46777650669507       13.35337222152774
S           29.62558145774094       18.40111484037828       17.89725124135293
S           28.59399341803430       22.05926147447366       15.62085468398758
S           27.13740799439103       21.66574494906422       20.30373283843505
S           24.36109147054507       22.93550943228558       18.43502592669716
S           31.74305502155835       22.39461630937500       19.15561810132539
S           28.25748587728751       25.54171566593122       19.04216636549078
