376
 energy: -589.768099863097 gnorm: 0.000650532470 xtb: 6.5.1 (579679a)
Au          14.25126540141181       19.37404635578777        2.12509229703551
Au          12.17590154568836       17.44115224312378        0.82867247541152
Au          10.16316288655501       15.99441123291829        3.47826561630494
Au          11.86000427485555       18.42947329281953        3.78013199860561
Au          16.77657171225618       18.22623828178475        2.55517262912754
Au          14.67211975314041       16.59588915432274        1.53763375476349
Au          13.46386912968111       15.08149891640325       -0.37103169928638
Au          12.44507689819921       14.89484860381156        2.25286516365076
Au          11.24460361276083       13.43719797749249        4.21601917726709
Au          12.48240111349046       16.00449591378944        4.92628672794333
Au          14.37771033614622       16.63688442256226        6.77791859917733
Au          14.64227467958552       17.65054002629804        4.24848184272212
Au          16.83381754438030       15.30087655118346        2.94851569305132
Au          16.70383985630880       14.87586470311183        0.15175361883438
Au          14.95025264949372       13.47385841655669        1.68641000465508
Au          12.58539813403356       11.94000549345204        2.00951809815633
Au          14.08576933367263       12.63005472047650        4.25451334861364
Au          13.36383972508771       13.74728242965691        6.63897868561234
Au          15.81768409337427       14.34778424130074        5.59970432353653
Au          17.30422323395727       16.79246372801754        5.25463465909448
Au          17.56514061257817       12.67207605333181        1.94174855202265
Au          15.19900668673318       10.80091535653456        2.40072932599195
Au          16.78482810829048       11.85229104941802        4.82540987889930
Au          18.52809322658400       14.34184125134924        4.95821595067727
P           10.23105131761317       18.60309198540671        0.02066681999202
P           10.42768357601361       20.34642977297921        3.64781792038603
P           18.98189548510848       18.48943490485614        1.60391556316344
P           17.44595880479867       16.18869827847197       -1.72221519697352
P           13.12018098672302       13.61780719365288       -2.23881043758988
P           10.92402161664848       11.07957766944128        0.49370881125249
P           10.00396631779166       11.62755637618461        5.20772941015228
P           11.65286761781423       13.77670622692530        8.33041825924305
P           15.34866807598489       16.73431535556965        8.99448091029532
P           17.68415284691567       18.89915334040133        6.38693304659450
P           19.62242815319380       11.39185476606538        1.83774775777373
P           18.15329327626466        9.88435049905077        5.00236402129679
Cl          13.17826662755216       21.22858575174304        1.10994744172444
Cl           7.87271057135511       16.15768991552737        2.74664024066029
Cl          15.50040235583613        8.42288716546829        2.27367070178311
Cl          20.16658326198999       12.64271144841952        4.35855112151325
C           10.54238076094015       19.99402948085057       -1.10453057207348
C           11.85278679670732       20.17946334302374       -1.55227988613027
H           12.63354612763694       19.52323957710427       -1.18570185740669
C           12.17150638616339       21.20857135071808       -2.42287687067243
H           13.19649860048119       21.33793312229541       -2.75041954660229
C           11.18113307380980       22.07708204498905       -2.85848992416619
H           11.42627968050835       22.88663968126775       -3.53584542608560
C            9.87569068733305       21.91282990139172       -2.41508375785853
H            9.09963666593016       22.59356119864992       -2.74533592637277
C            9.55466668881646       20.88193823253284       -1.54575809544127
H            8.53181294110863       20.77599473902364       -1.20669031703974
C            9.15817283229732       17.45556764201241       -0.90123084666001
C            9.07791219298432       16.13306604747560       -0.45536176995570
H            9.64394846541244       15.82818811107935        0.41748046506027
C            8.27375750243018       15.21301827738119       -1.10625499137081
H            8.20978965945138       14.19674348016450       -0.73615005541654
C            7.54644795750411       15.59090907233756       -2.22605642434583
H            6.91820609864832       14.86998782064000       -2.73578533757223
C            7.63146578592939       16.89546568570089       -2.69145772650634
H            7.07004074532897       17.19903248224147       -3.56746995984151
C            8.43194202567800       17.82084389623526       -2.03773927475367
H            8.48904085348768       18.83245610671860       -2.42044547022271
C            8.94085042300816       20.16732613741349        4.67854499679434
C            8.47567163498916       18.89330316640668        5.00742416157287
H            9.02839120837772       18.02136300098393        4.67966069924145
C            7.31155862255152       18.72477868186945        5.73954078078438
H            6.96163599717115       17.72501471626468        5.96870767542784
C            6.59995304092254       19.83545951222384        6.17088139861568
H            5.68973043825987       19.70887724233765        6.74513835411889
C            7.05985877614855       21.11021814622308        5.86790299802515
H            6.51060469795659       21.98087763109142        6.20710121716220
C            8.21862398041945       21.27925210607892        5.12686091545185
H            8.56925428768671       22.27953711542751        4.90017716860001
C           11.17924253425921       21.88435311888045        4.25374368274534
C           11.64608024931145       22.91169207293679        3.43202533021341
H           11.53004198779798       22.84928566021411        2.35819627408240
C           12.28428586431421       24.01379553691840        3.98212587927795
H           12.63619212064796       24.80587745686727        3.33151808992484
C           12.47602603426425       24.10277722371710        5.35332601497301
H           12.97515359937221       24.96528863666178        5.77910853658409
C           12.03286203812159       23.07724309796861        6.18014422342122
H           12.18679375482925       23.13507334461023        7.25172760046605
C           11.39550849220071       21.97514105808305        5.63557776764467
H           11.05639740320403       21.17412021304341        6.28498098543642
C           19.47767602189379       20.16936288421750        1.12745633338602
C           18.45640843295796       21.08764759791227        0.86051932657530
H           17.42225402231616       20.78717648044129        0.99208243418842
C           18.75254871341333       22.37351179729997        0.43544582144999
H           17.94890158261861       23.07017006970835        0.22766730071210
C           20.07598090284541       22.76333153151198        0.27925107987170
H           20.31032084574656       23.76926508258909       -0.04826864436798
C           21.09861040439605       21.86274236055414        0.54465761003460
H           22.13267410365687       22.16375115838962        0.42325752425107
C           20.80637996739663       20.57298413751859        0.96119174717659
H           21.61482069769303       19.87927904659162        1.16054729824955
C           20.30243797408551       17.82737715092109        2.66313727645900
C           20.52806956840976       16.44727700665492        2.73238755519323
H           19.96681102835920       15.76802771819388        2.10033488031906
C           21.47447762508961       15.92551635899983        3.59964862842939
H           21.64220103464966       14.85587049086010        3.62789920723294
C           22.20638168674275       16.77128537138054        4.42183885591359
H           22.95174031904430       16.36427925816460        5.09466166140133
C           21.97420809693102       18.13888228476143        4.38289736008821
H           22.53547097220984       18.80519094853775        5.02752457063858
C           21.02070248171863       18.66304208979616        3.52369437594023
H           20.83676261528471       19.73162714210815        3.51935808997386
C           18.81710575248185       15.53371209201010       -2.71587134022118
C           19.28736849490785       14.26353603233484       -2.37174266155383
H           18.81093364738264       13.73016488100437       -1.55691242439742
C           20.33551734389869       13.67579353027816       -3.06134499533926
H           20.68329345088057       12.69048951867629       -2.77236708531531
C           20.92959000562134       14.35145019702975       -4.11782254996193
H           21.75003338809409       13.89790173665238       -4.66115871687993
C           20.46544772262054       15.60909657394592       -4.48161145905254
H           20.92217831848993       16.13642891101595       -5.31101330360956
C           19.41761750275928       16.19884489208643       -3.79163301932942
H           19.06618111459127       17.17799134024827       -4.09302123834176
C           16.15221719361529       16.68979297614946       -2.90057348185918
C           15.01834975785884       17.34027099629597       -2.39918657646583
H           14.97408455207252       17.61408556999237       -1.35044354024329
C           13.95515658678609       17.64968422898357       -3.23072774702705
H           13.08208777997264       18.14710943489074       -2.82666266743461
C           14.00454823732613       17.32267365446998       -4.57952248018238
H           13.16936014553483       17.56310063552279       -5.22665271363999
C           15.12398402806055       16.68270038083589       -5.08975056076521
H           15.17292558985021       16.42639163944440       -6.14165654422369
C           16.18553456987411       16.35914926446216       -4.25615998275311
H           17.04235148937692       15.83836653178287       -4.66664304752348
C           12.03118115065435       14.24008027508157       -3.54985782252440
C           11.38248902319398       15.45548315775015       -3.31035652809411
H           11.52876395725583       15.95769740383976       -2.35960554354414
C           10.56263610804848       16.02645853742628       -4.26992071467620
H           10.07481122333875       16.97253661809935       -4.06636178489457
C           10.36721694352070       15.38490939071945       -5.48479940818730
H            9.72652742126361       15.82938828045905       -6.23714130297313
C           10.99535595830623       14.17177310453455       -5.73352269016205
H           10.84370578333881       13.66566459323763       -6.67975543029830
C           11.82340212856039       13.60241544146640       -4.77887581167998
H           12.30889502732806       12.65810774755988       -4.99242757010386
C           14.68748948324946       13.14200187577388       -3.02948465541409
C           15.63340809182310       12.48823934795558       -2.23064610079920
H           15.39876498083744       12.25534352224891       -1.19700705730694
C           16.86313091341685       12.12123619048207       -2.74772444401369
H           17.57428453244438       11.60292858743794       -2.11701256575113
C           17.17721373732984       12.40589662378529       -4.07063114459419
H           18.13999302477903       12.11496197032558       -4.47375469661334
C           16.25702001698551       13.07094545422372       -4.86653467367418
H           16.49573012208666       13.30278680696363       -5.89801350991326
C           15.02310747648514       13.44216509506789       -4.34962424871922
H           14.32123713712283       13.97319199974021       -4.98131739221264
C           11.15773405929773        9.35558356532565       -0.01755995272257
C           12.31019206768521        8.71401886281640        0.44672967597692
H           12.99606965277826        9.24976407823800        1.09161331101339
C           12.59114244101123        7.40268856783007        0.10141032345827
H           13.49597065022351        6.93691456877326        0.47438247911469
C           11.71287504170903        6.70315251619504       -0.71369157360795
H           11.92200255968190        5.67503711352201       -0.98466413011279
C           10.56276274265833        7.32467124296345       -1.18428889546079
H            9.87581231798006        6.78191939956913       -1.82337021195428
C           10.28374838537189        8.63974988769435       -0.84608951430451
H            9.38709483056298        9.10952832376636       -1.23205906156480
C            9.19118635926555       11.29891352472011        0.99388197851334
C            8.78085948460386       12.59886488360887        1.31404977626879
H            9.49285609612088       13.41584946791834        1.25214758093733
C            7.48019390982702       12.85402194785201        1.71328747203378
H            7.18089997344522       13.87000980194165        1.94196537324662
C            6.57396271302260       11.80821020418673        1.83139599997590
H            5.55716369694314       12.00593736061969        2.14932820464354
C            6.97935020884699       10.50962175596251        1.56098871127171
H            6.28222563539941        9.68681029089472        1.66988998241919
C            8.27847689954255       10.25341017640607        1.14481660841761
H            8.58086121920586        9.23306595172231        0.94256024591249
C            8.19609337677591       11.75671215869369        5.25962497913391
C            7.63597472605975       12.98615173102357        4.89859690173587
H            8.28098913947192       13.79057249565596        4.56394160042258
C            6.26665298793567       13.18906678285216        4.95267781066776
H            5.85637744753760       14.15041646185954        4.66668794047674
C            5.43222910987338       12.15861626003066        5.36233406491881
H            4.35983095037299       12.30929061209089        5.40023454966442
C            5.97401207440611       10.93178973007118        5.72453562792442
H            5.32501720982750       10.12591679551888        6.04725838888272
C            7.34443796978193       10.72833390762716        5.68024785174910
H            7.75079341264472        9.76817293591709        5.97503286454995
C           10.46752631560084        9.99872271313405        4.54835818304801
C           11.82465859561388        9.65045651229450        4.57710116930097
H           12.53556033082202       10.30230273567108        5.07604332873070
C           12.27279434678035        8.48684129833327        3.97531060816649
H           13.32793808358019        8.24120765408029        3.98575957180529
C           11.37060506144539        7.64462585083306        3.33749252283525
H           11.72054069053521        6.73451190780581        2.86553747954388
C           10.02630714120884        7.98190805560414        3.29188535607060
H            9.31942451610727        7.33451450704183        2.78572792728198
C            9.57744318561020        9.15572300187616        3.88060039396326
H            8.52921212841949        9.41936338677717        3.80914243432577
C           11.91663327045382       12.79097001493555        9.83018974879466
C           12.90991554374961       11.80815100857866        9.77575668150810
H           13.52850586909421       11.72479902331538        8.88798142824074
C           13.11318052341345       10.94610798565467       10.84170824909292
H           13.88214570117604       10.18481356161016       10.77973266671833
C           12.33620695675292       11.06430627969557       11.98629342014250
H           12.49673442632673       10.39483662813065       12.82300808474279
C           11.35265044619809       12.04195730869735       12.05647416478179
H           10.74383732651883       12.13654881531286       12.94807403365879
C           11.13585910835192       12.89591104065676       10.98616663727249
H           10.35560426666999       13.64488933423454       11.05102002616568
C           11.08941474675481       15.43679079152927        8.81334661673304
C           10.45694869221456       16.22514635213883        7.84413290355727
H           10.25457332257954       15.81455912681409        6.86071165523379
C           10.08024459214336       17.52798826029590        8.12152494630164
H            9.59121360722245       18.12059685898125        7.35631975181527
C           10.32411856814013       18.06798134881161        9.37740530775175
H           10.01975665654156       19.08362624509843        9.60116105583943
C           10.96794545148170       17.30466404192794       10.34124138884982
H           11.17140588415649       17.72437464968592       11.31951123350916
C           11.36452404656014       16.00594410113403       10.05842632409295
H           11.89035208799199       15.43328689303511       10.81352557466406
C           14.61564165487857       17.83867063237360       10.23558603194646
C           13.70302531368216       18.79507357979194        9.77969248968885
H           13.39947965380125       18.78868290713665        8.73775923174181
C           13.17961415659590       19.74404094573844       10.64414931784450
H           12.48001993454377       20.48364605024556       10.27206068818907
C           13.54801799849084       19.74028629367383       11.98266297584292
H           13.13638389789819       20.47808905484297       12.66108659730110
C           14.44422664129913       18.78838720388744       12.45042751983416
H           14.73337522859839       18.78209258136510       13.49488240961647
C           14.98190658849827       17.84776437608087       11.58559938770720
H           15.68994397309426       17.11915545614462       11.96244810705447
C           15.70927409596264       15.14325875720628        9.79407713592397
C           16.64167179918113       14.29260021225678        9.18858598591761
H           17.18584607555977       14.62498526960265        8.31062655075787
C           16.88003770838889       13.02691728122623        9.69630682370656
H           17.60737174571234       12.38298751496452        9.21575197352321
C           16.18951399514735       12.58580911539754       10.81742723081121
H           16.38095054959775       11.59822249070219       11.22005483162333
C           15.24545624295575       13.41028672301775       11.41316547393385
H           14.69303394658887       13.06605552582692       12.27980560948745
C           14.99470785542618       14.67329887517041       10.89869912347485
H           14.23796916476572       15.29667754729819       11.36085035037276
C           19.36697697765343       19.34020963790321        6.90323379904545
C           20.26100973626878       18.29243651026314        7.14318742120916
H           19.95461634151172       17.27128835558175        6.94124429476354
C           21.53402152661776       18.54813208543530        7.62849675169342
H           22.21309747515981       17.72515849513548        7.81853869542492
C           21.93670659858648       19.85621913234448        7.86356015726892
H           22.93330287252019       20.05783705567091        8.23801007291777
C           21.06151825048991       20.90536133432972        7.61600353766567
H           21.37370343158901       21.92732301007122        7.79685778472516
C           19.78197049428259       20.65320213549886        7.14599136451062
H           19.10274504151936       21.47877891635286        6.96743920766871
C           17.00423676568959       20.31193087170185        5.46736012192484
C           15.63006418381804       20.57596877339096        5.48859787601534
H           14.97868605836189       20.03567745936102        6.16532767467642
C           15.07657891097472       21.52696505248054        4.64576214573889
H           14.01023236108273       21.71093506830779        4.67749211224905
C           15.88436908346496       22.24373050734286        3.77326938614407
H           15.44808686699945       22.98639769751206        3.11649400356062
C           17.24980283937094       21.99642719685211        3.74645428087981
H           17.89077300671442       22.55517802696531        3.07495285302442
C           17.80324181073654       21.02585448176917        4.56803276608275
H           18.86697097842343       20.82141123346674        4.51302663566470
C           19.41766771587192       10.57166676721488        0.20218094436891
C           18.19670786939374        9.95679367912541       -0.08709320026406
H           17.38368869662496       10.01302603815769        0.62748681263347
C           18.00241025635356        9.26672117111079       -1.27373882506467
H           17.05114577337563        8.78373317958293       -1.46498717893015
C           19.02462986101181        9.19916542238311       -2.21164713553174
H           18.87610536830419        8.66363788038775       -3.14194248371945
C           20.23648569564458        9.82399394397971       -1.95114088552521
H           21.03942098656212        9.77720871099623       -2.67802591926243
C           20.43463381846414       10.49645848330625       -0.75415087246500
H           21.39385171783910       10.96258378221783       -0.56132186426019
C           21.12925573752240       12.37452378003151        1.53816596222691
C           21.00566233177527       13.43238087749883        0.63486411457236
H           20.04566155192797       13.61825955039860        0.16546609473074
C           22.08725642285268       14.24408681544391        0.33436333303641
H           21.97494318266698       15.04630283382557       -0.38612272631702
C           23.30901179131871       14.02735924538983        0.95681908536437
H           24.15575087781581       14.66422108413320        0.72932753201476
C           23.43623309473951       12.99848144662750        1.87972571714137
H           24.38318212739279       12.83348586764975        2.38046352004735
C           22.35744712025719       12.17661465032368        2.16977979427999
H           22.47181803356919       11.39448126199735        2.90945543117284
C           19.56703387039765        9.99101479437075        6.14212775333249
C           19.48807961012196       10.94847452834241        7.15699630286400
H           18.62042365796313       11.59907500494282        7.20634825953825
C           20.50588575696321       11.08795052334120        8.08477269189538
H           20.42790693544178       11.83981566484195        8.86198673485717
C           21.62686794140619       10.27180120614055        8.01053104111542
H           22.42919989449751       10.38334699597320        8.73035471047311
C           21.71806670253159        9.31592551067487        7.00919527355793
H           22.59059475143720        8.67600006813074        6.94605283831761
C           20.69701685730094        9.17177455425526        6.08122052718225
H           20.78823883222999        8.41758851747429        5.30973950668212
C           17.14193892296479        8.57860802359864        5.77495900599542
C           15.75244603429994        8.71089422399794        5.79351139503886
H           15.29134528550525        9.56846378258302        5.31659344565603
C           14.95411442414206        7.76444423209420        6.41484570114688
H           13.87733169643512        7.89065096726239        6.42541154058017
C           15.53373696639376        6.66271679994259        7.02778286683377
H           14.91139353861188        5.91997537815037        7.51299986978459
C           16.91478478617862        6.52066284720022        7.02454016253198
H           17.37453586966934        5.66621093293894        7.50754107965400
C           17.71387952418839        7.47190273368560        6.41124989480516
H           18.79121682933759        7.35569929811561        6.43315597239558
C            9.18262579174164       19.25570893419678        1.42916370392348
H            9.34464957119012       18.50951172984518        2.21890189968440
C            9.76069435320416       20.61281140214677        1.93076621545790
H           10.63459489304911       20.86889347726771        1.31783357088302
C            7.67421861250220       19.23395089074306        1.17621142399318
H            7.14963876120560       19.53212285024116        2.08370648973030
H            7.37067066341268       18.21556468777220        0.93715562572136
H            7.37401132963330       19.88922549343648        0.36100201462335
C            8.78593825025318       21.78855600589129        1.83564932548293
H            8.49286543290641       21.94437857184910        0.79807953897176
H            9.26721943713569       22.69933219318288        2.18923157113817
H            7.89064364946417       21.62232535626937        2.43249397394477
C           19.16191864946546       17.50032176332864        0.02419211968123
H           19.03982910574736       16.45593812911231        0.34370896960685
C           17.99936714206116       17.79945683018343       -0.95064577087854
H           17.13460597975193       18.09146544151193       -0.33726659636418
C           20.54850142361041       17.62562114430125       -0.60531766920765
H           20.62156082512637       16.98249532176344       -1.48170136170700
H           21.30794360852057       17.31814458590269        0.11296785150596
H           20.75890447815593       18.65027257015402       -0.90840306676467
C           18.25676733056309       18.94664305525904       -1.92611700052281
H           18.46510483533142       19.86225141986302       -1.37337807928272
H           17.37191674548463       19.11154451523530       -2.54024928069716
H           19.09978964630331       18.74176800227824       -2.58272570288738
C           12.46105207438806       11.96252014429895       -1.66333275973184
H           13.13455368759605       11.70291804848804       -0.83303300209463
C           11.04845276616442       12.12689665662410       -1.05768915698336
H           10.97315453207968       13.15758094744891       -0.68143166020558
C           12.57530129696589       10.83782232066161       -2.69263219927994
H           12.23916219243330        9.90021248612611       -2.25218470334948
H           13.61434047558090       10.71824012042967       -2.99702738528686
H           11.97592745637499       11.03582542225972       -3.57902014038553
C            9.91376019842769       11.93219640221797       -2.06223014620679
H           10.01788294689531       12.64192220615094       -2.88292196212887
H            8.95599604412062       12.10928090341253       -1.57447116366239
H            9.90655211016531       10.92477217539976       -2.47387813649260
C           10.52269649139782       11.61357864092778        6.99780752866193
H           11.61950068220475       11.56065096835241        6.96225276092847
C           10.13541876414182       12.99973467901300        7.57815966095007
H            9.89459811055237       13.65222111516371        6.72753792211669
C           10.05575017799667       10.41253776550585        7.81705105967154
H           10.47171091283673       10.46543760805144        8.82347228839509
H           10.40906540122070        9.49472887365607        7.34716389607918
H            8.97068914750663       10.36698130095844        7.88974706362897
C            8.90216870916141       12.99165292414445        8.47995526013605
H            8.04802892888364       12.59278618989133        7.93286829150658
H            8.66656132666102       14.01062922021326        8.78669903860807
H            9.05740679141332       12.38825463790469        9.37283956828656
C           17.01418087102743       17.52314614198716        8.70635871887177
H           17.51226195608275       16.86320059752707        7.98391015030067
C           16.74532935213029       18.87596242382961        7.99463344477075
H           15.68930396079102       18.87543880239766        7.69543291933921
C           17.92972501469307       17.60562482208739        9.92572023672018
H           18.89436948462003       18.02249471730914        9.63487798223080
H           18.09511184342008       16.60538053670066       10.32583014629580
H           17.50347458027144       18.22596706279367       10.71245020635523
C           16.95113775680650       20.11825500175232        8.86030656395489
H           16.31840716079563       20.06554346089348        9.74603731075697
H           16.67111496737447       21.00592592411430        8.29273436562943
H           17.98809595669536       20.22437334273630        9.17495594600770
C           20.05174901524835        9.88868717122827        2.88607694127911
H           20.59533461572490       10.25773582844324        3.76020844474422
C           18.74378079671817        9.19595385246491        3.35987930251616
H           17.94138453230630        9.48062018610964        2.66863010617104
C           21.00503497207723        8.95000018858706        2.13806639842171
H           21.36580159537763        8.17674143993850        2.81577285021901
H           21.86808359010829        9.50703937105552        1.77511225709644
H           20.52458576134566        8.47541211956253        1.28478845871067
C           18.76709567347308        7.66412173947891        3.32379634714993
H           18.96565287286736        7.32219581151789        2.30897904410897
H           17.78472073129952        7.28973828072169        3.60820638924215
H           19.51339263688211        7.23957364842791        3.99274797294743
