564
 energy: -797.781899844712 gnorm: 0.000443742413 xtb: 6.5.1 (579679a)
C            9.70991958316739       15.17272448735719        4.36742255795034
C            8.55177149081990       14.97592918101949        5.11362511382042
H            7.70937710676518       14.45375063034462        4.67137674867807
C            8.44992007707062       15.45954741798307        6.41084042420654
H            7.52449556190671       15.28613167957847        6.94592363681841
C            9.50079699712868       16.15988557027135        6.99846543591498
C           10.66507025755845       16.34030873123742        6.24799085200916
H           11.50843626433037       16.87520721027045        6.67015089858482
C           10.77231741612653       15.85529720869735        4.95433727753070
H           11.68766859811477       16.01419487571605        4.39490654854696
C            9.42217798379625       16.74935368911898        8.40063261838507
C            9.63838833582545       18.27146252676961        8.31067596309206
H           10.62654000736560       18.50487103587551        7.91569392188082
H            9.54790599153655       18.72240196089420        9.29938107492707
H            8.88949646493985       18.71565104310287        7.65390060477346
C           10.52266467353963       16.11951770007074        9.27278460040173
H           11.51187177310910       16.34938314008770        8.87783040153167
H           10.40645127337223       15.03567802616559        9.29802860222515
H           10.46068229443903       16.50086512126038       10.29243910688028
C            8.06225662971990       16.50383047395759        9.06955643318402
H            8.06244959443510       16.94345059303495       10.06774181723910
H            7.85866690397394       15.43792518044296        9.16987014558060
H            7.25788011770529       16.96352701119557        8.49477854654781
C            4.55917423739023       11.22804420989602        8.56824728574048
C            5.70289867460460       10.94576641082210        9.30482472363562
H            6.36739812039486       11.75045470929556        9.59492676782820
C            6.00527307858788        9.64264071981030        9.67610279964315
H            6.91838825792189        9.47252526678814       10.23128274531657
C            5.17388783362151        8.58185090323752        9.32602882198966
C            4.01370418673437        8.87713064902654        8.60870996379975
H            3.33602218666700        8.08618741639516        8.31060342936447
C            3.70494404891277       10.17790688225640        8.24396597559447
H            2.78899529784778       10.38060236674892        7.70349017711905
C            5.50943805594619        7.13256196551859        9.65315210854358
C            5.93017557956743        6.43917644374820        8.34524315457569
H            5.13002576342677        6.49189695902957        7.60682395640930
H            6.16731073156937        5.39053292815402        8.52769188495949
H            6.81221987515305        6.92904715893342        7.93229455607934
C            4.27853363371151        6.42226840047467       10.24372127108005
H            3.47430003168676        6.34700397271445        9.51271847186910
H            3.91021178714273        6.96961118142253       11.11186578110976
H            4.54655496356347        5.41235842806738       10.55589244376407
C            6.65602580329271        7.01300394163488       10.66699010174202
H            6.83695814335358        5.96127879556841       10.89225142966793
H            6.40418917400329        7.52408482031312       11.59656264663089
H            7.57883392417853        7.43619273211599       10.27092329849658
C            1.65842210733837        8.75794801845424        5.26620151939277
C            1.11945708612504        9.99838964964079        5.58827689299008
H            1.20842546424455       10.82426965620497        4.89028937684236
C            0.46594885704949       10.19557851025942        6.79814870326638
H            0.06458761134012       11.17999405352052        7.00458910613904
C            0.33610414722116        9.16078764986025        7.72247690091543
C            0.86400767944705        7.91247132104890        7.38073438747526
H            0.77246199663600        7.07601051644043        8.06472868597386
C            1.51820223370267        7.71309116757998        6.17659305108226
H            1.93168803009792        6.73747440576937        5.94427024595693
C           -0.33129838640488        9.34111951204657        9.08005550136787
C            0.68486710883187        9.00115177932119       10.18621787602172
H            1.01460470027355        7.96527740262672       10.11184730270026
H            0.23353131266660        9.14821491926710       11.16796629835608
H            1.55874371746631        9.64828560420501       10.10346367405562
C           -1.53966585054615        8.39276892956664        9.17650836890111
H           -1.22751792323564        7.35269394882661        9.08633120865856
H           -2.25081971153718        8.61158529938653        8.37950746327090
H           -2.04068027234725        8.51994598837137       10.13665842660073
C           -0.82326322740794       10.77738018691437        9.30962882042754
H           -1.28264456093367       10.85024800663626       10.29623951684156
H           -1.56955049256078       11.05934676207937        8.56669623252868
H            0.00579735297210       11.48433953147726        9.26826878926527
Au           9.78311805071279       11.68721243971064        1.14558615838636
Au           9.72848985839365        8.92517467141728        0.69155047416754
Au           6.93231325633403       10.98500093179940        3.37749943991155
Au           7.14896655778961       13.45840486437245        0.78883498471124
Au          10.29572057129565       13.90462861044191       -0.85560616547544
Au          12.55588157999995        9.94118437357434        1.45862292726403
Au          10.13574699969794        9.11283481024812        3.65193140303531
Au           7.39010725524405       10.50190598139003        0.30394882180167
Au           9.68916996055315       11.81827809328253        4.85674351208118
Au           4.63458443514457       10.68082489817175        5.33184174911431
Au           7.16621263996554       11.74893839408698        6.54578513678465
Au           5.16884476163134        8.73843173873648        2.17603370026720
S            5.03752738101674       12.78386972634652        6.36228572754951
S            7.79106186747530        8.71432075217817        3.54131254226246
S            5.47448562460121        9.03929722205655       -0.15514867396842
S           10.62847593462566       12.99952523032106        3.04074611415347
S            6.30333525697709       13.26214584485993        2.98928977827728
S            9.20999526541115       10.60108624114051        6.84542496074419
S            4.20197442077243        8.56871939884199        4.35567354345209
S            7.97511534996329       13.88385989960150       -1.38159300053986
S           12.37627401543337        9.80906902835915        3.88684434118838
S            9.54683874872844        6.46589323680925        0.35575729347058
C            9.82378193528572       14.62309987757304        2.98478326436270
H           10.45867930444996       15.25101278104658        2.35866809320768
H            8.84141872312986       14.54651030240852        2.51872187869369
C            7.62843291777076       15.64402201633649       -1.65818635402168
H            8.34948325140509       15.99378208317285       -2.39669948787330
H            6.62768503758485       15.69458703617991       -2.08888667336700
C            6.19203683204019        7.49780975332654       -0.78935529641021
H            7.02147311615732        7.16617879264444       -0.16496846411272
H            5.39867645878461        6.74991564080970       -0.73242958329579
C            4.49347473448136       13.34027166435214        2.81318609330741
H            4.05338401593240       12.57620810590223        3.45283438563924
H            4.20867272241591       14.32372742386999        3.18865535981251
C            8.96702042470277        5.65364412612742        1.87245677421455
H            8.88891827085483        6.37408278971832        2.68655941846115
H            7.96923109535769        5.27976791914051        1.63979590785744
C           10.20303150868236       11.50792552146044        8.07513407712673
H           11.16951289182982       11.00435390170672        8.10037002686176
H           10.34998577248592       12.53535000499081        7.74886568571128
C            2.41776903073899        8.55822205054911        3.99411042319048
H            2.17510259366143        9.33066742196463        3.26545088279014
H            2.20508698888550        7.58120346556295        3.56056913222726
C            4.31698433166969       12.59771052373008        8.02044003538109
H            4.77097615701632       13.36324636743850        8.64982456374979
H            3.25041806764820       12.80084959062736        7.92083936036269
C            7.43655924785480        8.15364474463527        5.23340460960893
H            8.11684979548044        8.63963589600245        5.93096542879841
H            6.41683851890506        8.45090397567065        5.46895180415604
C           13.33917195142597        8.37795027874969        4.42440323359566
H           13.53585264766020        7.71372859237273        3.58132083629851
H           14.29724927176903        8.79021800468531        4.75084367460619
C            7.58255215890041        6.66893503091489        5.28035059908696
C            6.49995370266852        5.83567989834548        5.00813250674006
H            5.53477307487645        6.27044689434334        4.76872352819687
C            6.64644901011797        4.45991910734884        5.05674840239528
H            5.78207067013594        3.84000557659248        4.84591771140070
C            7.87254560529243        3.87101288990868        5.37558076859880
C            8.95374702321598        4.71271884666466        5.62575754660587
H            9.93090604451916        4.31064332248159        5.86071634785127
C            8.81243569640262        6.09203849153395        5.57263008059484
H            9.66725300282074        6.72699545454883        5.77590772111134
C           12.72213257303457        7.60882521252518        5.55651206761654
C           13.00705004088283        6.25409448862277        5.69869545365936
H           13.64868716357055        5.76168017405966        4.97531625112367
C           12.50230662537532        5.52585789233764        6.76785221209133
H           12.76254990703568        4.47651603841535        6.83538868006215
C           11.69568368359795        6.12666470673516        7.73272653578197
C           11.40469330744632        7.48302332391170        7.57546857221616
H           10.77770861006738        7.99713061692560        8.29542899924700
C           11.91121566863492        8.21164731370901        6.51233710976263
H           11.67183799260158        9.26404127506051        6.43444478375166
C            7.70541427866972       16.46230640549867       -0.40717055353497
C            6.54094977815323       16.88575442500990        0.22893612388485
H            5.57708435556310       16.66093819974949       -0.21236704055059
C            6.60082236163879       17.61722603001845        1.40397459707638
H            5.67011706137897       17.93051949368758        1.86339478574764
C            7.82285406118415       17.95875854991280        1.98550405322883
C            8.98527611131202       17.54900797733523        1.33445281835569
H            9.96235637572992       17.80369638553122        1.72584952683478
C            8.92633942308237       16.81507424275517        0.15967767210493
H            9.85093604714964       16.52820046269012       -0.32709720632951
C            9.89505788264596        4.53284867160432        2.21653615661251
C           10.88429142016884        4.68986714077267        3.18152262329059
H           10.96283309776911        5.62213061216441        3.73010584611240
C           11.76653765788659        3.65571921829911        3.46877762714085
H           12.49716544517427        3.81418776667295        4.25113402121937
C           11.70843828896193        2.44377000189794        2.78264768036414
C           10.72847725536647        2.30504469101989        1.79632766649653
H           10.65474483911369        1.38605499662833        1.22575084097743
C            9.83200846989494        3.32586820042547        1.52265786486398
H            9.08265088372784        3.18866902454148        0.75064076931478
C            6.63834891694531        7.65887859097619       -2.21300617895332
C            5.79562075384405        8.22177683457940       -3.16899328818540
H            4.81448528360965        8.57793722446596       -2.87300967400863
C            6.19553356966203        8.32569653979557       -4.49123273086246
H            5.51448797121569        8.77937367568834       -5.20309413034320
C            7.44037800579869        7.84950515642994       -4.91048714910180
C            8.28027434035236        7.30353562983407       -3.94556512546739
H            9.26672670816779        6.94043873719791       -4.20273568795323
C            7.89150130567239        7.21608540342175       -2.61748400675546
H            8.57464049258869        6.78025099768681       -1.89654405530405
C            4.10627598717769       13.16412253424074        1.38256729016690
C            4.12152296767862       14.25527634441030        0.51650680027743
H            4.23651473549238       15.25451404095164        0.91985654223840
C            4.02252571142910       14.07372980323701       -0.85584366612208
H            4.07184589047944       14.95022399458158       -1.49010196944525
C            3.90064946006078       12.79805842320066       -1.40274154964186
C            3.77038623533377       11.72456023045336       -0.51994621263139
H            3.63383968371506       10.71786957441411       -0.89627286840183
C            3.87095209217913       11.90208317765851        0.84925498735206
H            3.80224059282893       11.04253975538375        1.50727966750092
C            9.54787517890442       11.47233261203119        9.41761593563485
C            9.64092211616824       10.35148144395633       10.23849052633160
H           10.20143906526314        9.48362609203285        9.90738327813863
C            9.02252210340035       10.33476738192124       11.47818494142255
H            9.11709573358819        9.44497712083016       12.09077716356627
C            8.29393439670483       11.43370214662583       11.94300597824381
C            8.20756338812941       12.55123018478136       11.11576305586302
H            7.66094822373669       13.43371983821813       11.42412388006819
C            8.81853927859912       12.56543796538427        9.86938265684651
H            8.72437811939941       13.44284257130244        9.23935097468982
C            4.00750619123577       12.52834326454334       -2.89730697841717
C            2.86163654660997       11.61715808896997       -3.36754782364328
H            2.91938984313510       11.47511033231273       -4.44716028495000
H            1.89900531931906       12.06815964910154       -3.12537768708326
H            2.91648166126801       10.63739420251760       -2.89457242159567
C            5.35914140928894       11.82848419538700       -3.13258988574654
H            5.49088064202045       11.60186241149309       -4.19120462579030
H            5.41651245804791       10.89849611661765       -2.56815479762875
H            6.17409640694610       12.47624698075825       -2.80516027268186
C            3.97562493774484       13.81541080577611       -3.73397667330119
H            4.02393945315130       13.56120114280073       -4.79352193797781
H            4.82861875047369       14.45459316103215       -3.50358187494419
H            3.05546599180897       14.37258612875686       -3.55651808857118
C            7.83694182235402       18.79025361224087        3.26171858604674
C            6.97252643346265       18.10260319384893        4.33299567781275
H            7.03651439690042       18.64997069979189        5.27408335412205
H            7.32457088999889       17.08485082341047        4.49902691651072
H            5.92636300782446       18.06173668308370        4.03141807799900
C            7.25554559609470       20.17947424039518        2.94079047493771
H            7.25996480031032       20.80372325503506        3.83479178664640
H            6.23020931555907       20.09678589105538        2.58088221450467
H            7.85451847284204       20.66651195213869        2.17062645302292
C            9.25109752349937       18.97522696961054        3.82938366877260
H            9.19797074251032       19.53750503826357        4.76261603205663
H            9.88372101210245       19.52959148282829        3.13585096896198
H            9.71460615295966       18.01166209685848        4.03998782164314
C           13.60818323193273        1.57978398772237        4.23578424555250
H           14.25545367133067        0.71806023260229        4.40326046066665
H           13.04162214260087        1.76325088152940        5.14920944926642
H           14.24177728709593        2.44324583690046        4.03107626347389
C           13.52761821991557        1.04668993568677        1.80201873405103
H           14.18198195111479        0.18846499827710        1.95792355719231
H           14.14470223515508        1.92057712794592        1.59460853499260
H           12.90166298862171        0.85242809320396        0.93136016031014
C           11.86616386386265        0.01944797519914        3.37896154621856
H           12.54611858687111       -0.80397567802746        3.59982726639033
H           11.23626073008882       -0.27257087517586        2.53949024853774
H           11.22975198401897        0.18613324252285        4.24788473594282
C            6.61117708794983       10.20339664551380       13.31205235173758
H            6.09882741763765       10.15412526550997       14.27339720085645
H            7.11092841834311        9.25043445644633       13.14068595744437
H            5.86807051166260       10.35168926539910       12.52781854067162
C            6.86863639085112       12.65507192435770       13.66120702688961
H            6.41079720683392       12.55017846745635       14.64562970036343
H            6.07686505248202       12.85446801436492       12.93871155186690
H            7.54669910976003       13.50817274358936       13.69169891978841
C            7.62209429620476       11.36440192897568       13.30855462388911
C            6.73876584770244        7.35775854123562       -7.26617872703554
H            7.04711086097921        7.38443564259090       -8.31203823504166
H            5.80914608460146        7.91771429501201       -7.17126952406499
H            6.55094834710332        6.32137987666817       -6.98413287074076
C            9.14843193134037        7.20463526003878       -6.67936172753824
H            9.37048943139340        7.27133739028216       -7.74550458789030
H            9.06432719379713        6.15072270045258       -6.41411058674280
H            9.98655841930205        7.63763322214765       -6.13248714091311
C            8.69504745493399       11.12121521095835       14.38501756436109
H            8.23449367655188       11.08968654513145       15.37291365643069
H            9.43048270667328       11.92600326602402       14.36782942872046
H            9.21117244852227       10.17657742390290       14.21610472369273
C            7.84328834399990        7.95473819516652       -6.37641324401448
C            8.04516847257761        9.43959607004948       -6.71933001624303
H            8.35320323980340        9.55514043068048       -7.75932074706884
H            8.82027607010303        9.85487733497551       -6.07420675695912
H            7.12569008370690       10.00375989244127       -6.56250898264148
C           12.66872239084317        1.29237375089979        3.05557614953981
C           11.16577590586533        5.38787666948195        8.95554721176859
C           11.75961790640385        6.04820190153610       10.21412861928356
H           11.42596750272232        5.52023252577686       11.10802319773108
H           11.44516650003230        7.08883979546132       10.29145840195347
H           12.84877356767370        6.01728204949596       10.17534877493393
C            9.63167964350014        5.48743807923010        9.00608159740475
H            9.25563851083817        5.01192657326400        9.91255332614656
H            9.19001994885322        4.98697992981631        8.14472237538328
H            9.30773686948429        6.52751777901512        9.00215311228022
C           11.55174089632117        3.90237128165941        8.96129326531687
H           11.13144000787960        3.42032948210298        9.84481074498887
H           12.63445542877357        3.77821088667003        8.98869147623762
H           11.15929232496011        3.39555431924902        8.07942925700201
C            7.97704239138295        2.35337436959008        5.44459253117443
C            6.97885751770744        1.83253721976468        6.49467253959729
H            7.06244179135316        0.74916401838420        6.58645370620246
H            5.95398358480564        2.07577365656314        6.21613067458168
H            7.19024837862312        2.28295951914443        7.46513470675996
C            9.38069085530503        1.87808603140169        5.84324283856103
H            9.40163502687677        0.78790002426985        5.87152445886070
H            9.65113555205953        2.24742182961430        6.83277870467622
H           10.12644874598402        2.21553619569444        5.12382194194959
C            7.63807090931426        1.76267149569652        4.06472692545398
H            7.72293893156027        0.67578713321526        4.08979405324166
H            8.32839768936670        2.14887701631210        3.31437559435862
H            6.62284614700835        2.02326931672367        3.76683123456104
C           12.42108873050509        5.54270889068284       -4.38414431985873
C           13.57917595547173        5.73954679300000       -5.13042843637294
H           14.42156429441215        6.26179732856103       -4.68826127074726
C           13.68096096676955        5.25591663154421       -6.42763954789292
H           14.60633787949143        5.42937606347225       -6.96279070332710
C           12.63008718217742        4.55548976864658       -7.01516098116192
C           11.46585478893666        4.37507256787689       -6.26462132172296
H           10.62247749512409        3.84013929919063       -6.68671005480697
C           11.35866311725630        4.86013090181155       -4.97098311482704
H           10.44335270877825        4.70123093254090       -4.41148717018694
C           12.70867084933133        3.96595222196906       -8.41729714240857
C           12.49207259673943        2.44389956347192       -8.32732255632427
H           11.50376267876955        2.21073305670210       -7.93259416240857
H           12.58270087296701        1.99290300674400       -9.31598775257953
H           13.24069031553499        1.99955458314440       -7.67034050880991
C           11.60840925669899        4.59603857957226       -9.28954731045250
H           10.61912768214818        4.36663752094202       -8.89450873465345
H           11.72504308043509        5.67982728989173       -9.31501524103554
H           11.67022091291268        4.21445686313239      -10.30912464974045
C           14.06871550390861        4.21110766145803       -9.08610423090856
H           14.06853922144949        3.77135867563980      -10.08423224560586
H           14.27254270352911        5.27695640593627       -9.18653730418101
H           14.87292665135751        3.75131456689730       -8.51117098298647
C           17.57190863432592        9.48807239436281       -8.58492883016615
C           16.42817891545269        9.77001044492213       -9.32161599947845
H           15.76390235563673        8.96513442919196       -9.61170402033815
C           16.12551384191409       11.07303024863660       -9.69302088058735
H           15.21241314703415       11.24286785295157      -10.24830748558025
C           16.95659629618346       12.13406436669346       -9.34296193242196
C           18.11674647993645       11.83914783555239       -8.62544168827116
H           18.79419933452946       12.63028331085617       -8.32731947686822
C           18.42579167820391       10.53847391105042       -8.26055850677006
H           19.34175772186676       10.33605361554365       -7.72001252558756
C           16.62071183388561       13.58322603217204       -9.67031162360489
C           16.19932301786802       14.27658206553175       -8.36259847197711
H           16.99925814043531       14.22418367636729       -7.62392406970308
H           15.96190315560907       15.32513282407236       -8.54521226331084
H           15.31731043371891       13.78645262982960       -7.94988828242809
C           17.85159094230714       14.29385947177593      -10.26052628678560
H           18.65551340413445       14.36954554233783       -9.52922513933822
H           18.22044970567375       13.74650858307286      -11.12843799028700
H           17.58332294134076       15.30361912652073      -10.57297094843547
C           15.47443002923587       13.70234167645975      -10.68455055428122
H           15.29330161718273       14.75398778864904      -10.91002281377653
H           15.72671560531905       13.19119482181443      -11.61396522005104
H           14.55159345878316       13.27897647197862      -10.28873828485406
C           20.47235766768122       11.95838649486928       -5.28303029324907
C           21.01132430526456       10.71790100675727       -5.60492214339979
H           20.92238739292969        9.89212991208865       -4.90680092766156
C           21.66481884859096       10.52054001654974       -6.81476950131247
H           22.06618689780026        9.53609747003165       -7.02106429520209
C           21.79463593778677       11.55519451827887       -7.73925635128421
C           21.26675078480129       12.80356440187740       -7.39768301278916
H           21.35828347577294       13.63992692440564       -8.08179837704937
C           20.61258758555511       13.00312169234103       -6.19355645303200
H           20.19911908182193       13.97877685021637       -5.96136007459605
C           22.46195971533894       11.37464490051429       -9.09684224837635
C           21.44569859799488       11.71440009963792      -10.20298250897993
H           21.11594180991153       12.75027966403358      -10.12876430486391
H           21.89696913531477       11.56717804753304      -11.18473662343376
H           20.57184293117615       11.06725972427445      -10.12005429863390
C           23.67029862732852       12.32300446970442       -9.19355013725446
H           23.35813605743548       13.36309000297764       -9.10354393710481
H           24.38151692883933       12.10434922966560       -8.39656253976132
H           24.17124180852932       12.19565870212459      -10.15371483087181
C           22.95393214271844        9.93835063145055       -9.32618701011896
H           23.41325454417684        9.86531987206842      -10.31281258326266
H           23.70026936561640        9.65652757515751       -8.58324991039314
H           22.12488626137895        9.23138340405601       -9.28465500963096
Au          12.34773509016012        9.02941353234612       -1.16228198791107
Au          12.40209176670901       11.79050991933804       -0.70839135924704
Au          15.19814267579391        9.73072880270733       -3.39411695716570
Au          14.98174630484220        7.25728759388201       -0.80581382816222
Au          11.83468186304662        6.81024123726925        0.83991815565791
Au           9.57489450121011       10.77402186422968       -1.47524220308260
Au          11.99505475591250       11.60239906629393       -3.66924117189755
Au          14.74053618454307       10.21378564126982       -0.32100388635596
Au          12.44117378358294        8.89750709648493       -4.87382413312316
Au          17.49682346032937       10.03520603263185       -5.34761125669156
Au          14.96497168311793        8.96687080174214       -6.56217387596222
Au          16.96194462088216       11.97794862802964       -2.19237649316683
S           17.09360365303079        7.93228357933616       -6.37905617128551
S           14.33975333106898       12.00131476271224       -3.55794020417379
S           16.65634158115470       11.67574511208224        0.13838017017724
S           11.50260789483367        7.71584328369305       -3.05733628685512
S           15.82768756482705        7.45356502883470       -3.00601805890817
S           12.92123830618378       10.11418918631121       -6.86252362537937
S           17.92873108967560       12.14769411619594       -4.37247590719045
S           14.15564934693161        6.83125493275182        1.36448897046512
S            9.75442198446012       10.90621795321598       -3.90346229311708
S           12.58401918876698       14.24927700714600       -0.37301615582962
C           12.30730341153609        6.09229888044203       -3.00148926130925
H           11.67254392878609        5.46438126796177       -2.37524855754809
H           13.28970070971236        6.16909587709876       -2.53555850987310
C           14.50222809391625        5.07111615165279        1.64118384074485
H           13.78100895896285        4.72141056817163        2.37955632693071
H           15.50292762295571        5.02046148818704        2.07198994656808
C           15.93901993291302       13.21743131593100        0.77249511451338
H           15.10967780765500       13.54939769665703        0.14814398645677
H           16.73255013129201       13.96517152337425        0.71574306622994
C           17.63753854295968        7.37525338608553       -2.83007402718544