376
 energy: -589.768099606115 gnorm: 0.000324857314 xtb: 6.5.1 (579679a)
C            6.82060517117372       10.16315495070130       11.74476218545220
C            8.19047597874590        9.87765577739646       11.72626923231823
H            8.85107071306051       10.40516305983610       11.04840982386254
C            8.72794588775767        8.92113381118893       12.57327685399323
H            9.79124897578037        8.72007898693909       12.54339067020280
C            7.90799887315538        8.22031597955959       13.44733358307256
H            8.33167871745943        7.47304961140496       14.10713028403418
C            6.54661454047128        8.48922646771913       13.47171443705714
H            5.89618525927154        7.94310641354225       14.14449107280247
C            6.00946869699170        9.46521753024616       12.64580869512425
H            4.94895336206264        9.68630299674332       12.69846483430242
C            2.78586121331023       18.17260988635342       15.64104564456582
C            2.89129224031431       17.11156570251071       16.54291791898764
H            3.84794124213888       16.90871571181744       17.01208372276719
C            1.79601657935061       16.31786107025989       16.84210261913642
H            1.89467730576304       15.51245369209607       17.56104362584469
C            0.57806522990641       16.55645765783870       16.22018677983142
H           -0.27954286040476       15.93406734146913       16.44700898630975
C            0.46853196022071       17.58848059175322       15.29856215648432
H           -0.47548011617386       17.77048414262233       14.79817639448356
C            1.56132587209140       18.39193877171480       15.00937170754562
H            1.46019401315682       19.17671656452211       14.27058330717411
C           14.69225052458177       12.94674513268373       18.11169672537104
C           14.79316979113850       14.26600280384610       17.66036749049612
H           14.23815261665804       14.57403191198551       16.78156616820368
C           15.60376583775755       15.17863954297076       18.31370253482228
H           15.68374837372009       16.19238259512974       17.93977915899174
C           16.31710625337196       14.79660856809297       19.44109023271924
H           16.95059847624642       15.51170568057807       19.95252206007480
C           16.21141605419776       13.49549286772227       19.91179518297262
H           16.76190383102750       13.18873054040997       20.79361400243224
C           15.40425335846978       12.57754598270677       19.25587154223575
H           15.33080959312261       11.56856686806490       19.64276674742485
C            5.06548436766745       14.98704202560012       19.90863275756440
C            4.60402379224544       16.25628808660467       19.54952351862443
H            5.08502230787189       16.77702223874763       18.72923082186111
C            3.55882284036600       16.85869686776668       20.23078573100068
H            3.21779704044570       17.84278510322545       19.92992673406565
C            2.95905653065196       16.19904869318124       21.29413155939936
H            2.14066097447766       16.66398446049061       21.83087022959616
C            3.41476691066607       14.94280865832821       21.67311599247549
H            2.95360153492601       14.42807088550065       22.50794754965333
C            4.45943819755312       14.33822295262222       20.99122024600287
H            4.80383736651242       13.36013898042478       21.30400756182291
C            7.71561390557905       13.79497197562400       20.10211121188408
C            8.83924845370272       13.12396747820704       19.60468907035916
H            8.87992651220937       12.84433028214943       18.55732561077645
C            9.89677258262835       12.80159568351452       20.43859501652328
H           10.76187400985392       12.28788742051244       20.03774881318846
C            9.85194935937954       13.13635857278337       21.78564714054636
H           10.68265908253984       12.88562754588880       22.43462897582397
C            8.74297949779406       13.79744922212044       22.29177012986301
H            8.69778138717157       14.06032195290096       23.34222480412397
C            7.68720386754959       14.13359379016976       21.45586453094736
H            6.83889296750481       14.67061756450079       21.86302391488007
Au           5.36738640048593       16.15377875391928       12.23273347672049
Au           7.14023617741625       18.62243183843677       12.36022187822527
Au           8.73424307065187       19.66316581524323       14.78202624570639
Au           6.34719185557868       17.82209625919182       15.24811794564533
Au           6.56092992049351       13.68892384565187       11.94442415211934
Au           8.07861681786446       16.11276251906849       11.59298823085871
Au          10.54011904111783       16.68111876194543       10.55459707277230
Au           9.82844742924994       17.81574351882400       12.93495316599126
Au          11.33359798524657       18.49512438897156       15.17988544073307
Au           8.95234015385924       16.98898516156108       15.50341363583602
Au           7.18479038890179       15.61016160541493       17.04210196753198
Au           7.04861981592599       15.18121258908297       14.24694805215035
Au           9.21292261424665       12.80227320881609       12.95494071222073
Au           9.49640390221414       13.80600796887119       10.42336086370224
Au          11.39125261630518       14.42289549411887       12.27800462266297
Au          12.66031894733114       16.97501225353394       12.98180722992559
Au          11.44076502972800       15.53719170775913       14.94735059686243
Au          10.41465206967078       15.36601258457403       17.56995516593963
Au           9.19437353940819       13.86341655622044       15.66185569715860
Au           7.07222601332217       12.25431440253871       14.64771989434149
Au          11.98732408865619       11.99224097122865       13.42723345654292
Au          13.70999132193841       14.40790537308591       13.72575075363881
Au          11.67797506105843       12.98954986875241       16.37788941482833
Au           9.58085798440474       11.07823451529725       15.08112356386042
P            5.79874469082479       20.60865933276672       12.17629067077029
P            4.30809964801044       19.13200949605400       15.34379707087234
P            6.16175238835228       11.58130763333639       10.81795746165377
P            8.52935263541649       13.70745743570283        8.20475950353750
P           12.25404294936287       16.63106853777557        8.86551091319727
P           13.92378604864429       18.76702047239900       11.98708972264092
P           13.00079903532571       19.34171016103810       16.69748901369585
P           10.76865779388995       16.83452477553897       19.43281514308540
P            6.43016657058506       14.31048828614719       18.92086686607325
P            4.86192399032384       12.02786002478093       15.59966707486489
P           13.39738303804365       10.05955491907301       13.56459840135876
P           13.61044308214917       11.80891469251855       17.18829402573400
Cl           3.75728410342921       17.88661888427414       12.82344264801551
Cl           8.46582169014033       22.04601466266734       14.90596727959314
Cl          16.00245446291568       14.22522959294665       14.44949315035360
Cl          10.64192659272437        9.21810874701334       16.09920308380912
C            4.38829476970009       20.51886128901613       11.03089858919082
C            4.46425023582174       19.56304197855030       10.01417350713941
H            5.32615419578163       18.90455374779394        9.96834536019843
C            3.45103738570660       19.43554047866790        9.07974507864065
H            3.52688454698864       18.68511793286307        8.30091971626356
C            2.33739956917810       20.26210691629035        9.14926823841349
H            1.53860802533260       20.16008459435454        8.42410453738573
C            2.24912670483203       21.21617943355190       10.15256531377203
H            1.38223555060612       21.86408595736318       10.21184971044376
C            3.26589231003996       21.34863066359418       11.08709249827862
H            3.17731595025742       22.10212722456839       11.85957990441303
C            6.83104808972398       21.89650549507280       11.40094165144050
C            8.21829221376452       21.74262003696435       11.38417155036273
H            8.66553082886024       20.87982886751665       11.86482211129776
C            9.03192639036938       22.67390883462630       10.75982330971104
H           10.10657626195362       22.53060831405684       10.75056579111049
C            8.47013115783244       23.78218944854996       10.14216058579034
H            9.10445150741827       24.51309541466809        9.65449021777566
C            7.09148102248805       23.94595798669314       10.14388352978597
H            6.64566156439319       24.80575167375899        9.65731722682970
C            6.27703731553338       23.00968133438779       10.76004404382173
H            5.20164730683547       23.14267750841532       10.73686331730797
C            4.52170325899385       19.95189779946633       16.97863392631449
C            5.74918753600137       20.55480984398243       17.26569979135229
H            6.56087626303546       20.48900117439326       16.55044199048890
C            5.95166568564556       21.24507679015753       18.45086589758303
H            6.90802276390081       21.71860494167611       18.64035901602963
C            4.93119123459776       21.32451611341916       19.38974786659575
H            5.08609606035772       21.86009091839052       20.31897977797908
C            3.71291314024543       20.71130437403589       19.13164043420231
H            2.91138563509483       20.76720990001208       19.85943463494178
C            3.50664044762467       20.03887244650124       17.93595694873476
H            2.54247908646253       19.58229693875185       17.74493795579119
C            4.47558760652676       11.15756806168099       10.29786976697550
C            3.59375227418546       12.21428179851793       10.05218255642912
H            3.91090909328468       13.23265459865723       10.25146557855450
C            2.31911887297697       11.97096292304195        9.56471805951282
H            1.64960678292532       12.80071021826043        9.37027405945954
C            1.90267387719299       10.66661990510297        9.33292682283600
H            0.90479180145488       10.47471718892991        8.95680966482619
C            2.76570938034875        9.60876851368898        9.58597427154083
H            2.44277588814768        8.58971324379624        9.40762728619350
C            4.04674960035954        9.84841290578287       10.05842866170907
H            4.71632714752831        9.01600449611461       10.24164873421981
C            9.25079891346284       12.59158950462077        6.96711987398136
C           10.15261876765663       11.62606406352744        7.42521258112609
H           10.45494343938263       11.63028897724766        8.46750593000709
C           10.66701440149719       10.67075444598543        6.56231518662165
H           11.35839322558682        9.92422764504826        6.93593476521758
C           10.30028388084160       10.67695435675430        5.22335401767297
H           10.70505013871843        9.93422650370220        4.54617197062784
C            9.41455958360245       11.63760002889866        4.75351504896024
H            9.12665760184044       11.64579377434003        3.70872970943862
C            8.88591991147174       12.58480442667748        5.61670539092228
H            8.18612862878004       13.32054888639042        5.23830412997557
C            8.18956414339632       15.30010331291084        7.39943410718396
C            7.26488840739851       16.16367379755701        7.99839877607793
H            6.71245288996087       15.84027100830828        8.87454010120027
C            7.04469590190916       17.43095074647190        7.48640658442351
H            6.32299513363715       18.08497326324478        7.96178253171568
C            7.74621437287841       17.86085920755686        6.36776981095035
H            7.56916904596466       18.84984711994018        5.96201673532998
C            8.68280273417027       17.02330681065524        5.77850898813630
H            9.24378335248703       17.35859457728492        4.91385935770633
C            8.91511055224342       15.75847554504472        6.29706281837176
H            9.66602574822928       15.12444819047350        5.83992872507815
C           12.00678759237530       17.61919899490074        7.36447404580657
C           11.02448780336596       18.61320648396443        7.41503582243623
H           10.40343811385690       18.70361337401014        8.30038700676903
C           10.83514603420544       19.47750048867606        6.34835059088907
H           10.07458245296484       20.24742090534007        6.40735474005245
C           11.61536282427391       19.35069512023960        5.20691422715407
H           11.46586410667891       20.02210264898273        4.36971145671547
C           12.58803254298336       18.36195127011662        5.14051268226095
H           13.19936766185526       18.26062983569971        4.25138185049508
C           12.79078594016146       17.50540878372857        6.21150338547899
H           13.56263908795943       16.74754489500077        6.14951267538897
C           12.79755595390417       14.96345823524941        8.38543514971278
C           13.41455481962629       14.16736619965476        9.35828599622175
H           13.61692942860504       14.57578819453681       10.34261951263678
C           13.77585046824589       12.85965234177205        9.08340758537736
H           14.25313178307956       12.26112301043693        9.85140908565361
C           13.53160123562949       12.32227610185446        7.82647880157198
H           13.82386870462660       11.30263229122006        7.60479168436118
C           12.90293907149367       13.09346514465560        6.85891068573849
H           12.69912257083397       12.67590973359567        5.87978383504033
C           12.52204647673858       14.39746979690314        7.13901103600754
H           12.00833628588492       14.97674774353800        6.38065577321203
C           15.72971302098456       18.61198693724494       11.94079234703734
C           16.27010439602837       17.37559487997411       12.30807061366355
H           15.61199594379167       16.58240749530554       12.64388119463922
C           17.63624214644733       17.15138950324473       12.25887320103621
H           18.03056223466209       16.18487578903687       12.54988863145776
C           18.48748879861957       18.16740300733973       11.84780546123526
H           19.55756669793582       18.00025460032127       11.81357265240977
C           17.96549664998097       19.40097112736135       11.47941052235522
H           18.62769567595291       20.19557648588463       11.15556683484407
C           16.59820826540043       19.62562167455208       11.51879851074453
H           16.20755613577006       20.59073128288491       11.21901558707473
C           13.47980270029975       20.40392288593493       12.64000421047484
C           12.12668979734053       20.76745116908353       12.61016529918032
H           11.40838924397471       20.12176424730073       12.11380257951105
C           11.69181312734171       21.93826130963973       13.20769943016421
H           10.63949594010367       22.19569951133950       13.19662942186353
C           12.60362041783646       22.77266319269820       13.84210376859209
H           12.26405355091367       23.68837508827015       14.31080005301573
C           13.94408029177526       22.42056542432040       13.88838964072528
H           14.65839861565422       23.06201750662444       14.39165717744492
C           14.37954848445039       21.23949740481572       13.30407430093560
H           15.42476696638061       20.96439309101407       13.37623977457646
C           12.78947356837642       21.06983988448636       17.20462543237945
C           11.64598973504270       21.72597210269723       16.73845352620740
H           10.95269561110812       21.19806092515735       16.09505562871242
C           11.38335516395807       23.04202876171929       17.08023596186999
H           10.48512901475135       23.51940536018857       16.70599644887995
C           12.27126388174428       23.73156769626895       17.89341442348936
H           12.07648076154610       24.76326599346627       18.16144855458257
C           13.41259917206291       23.09544971190599       18.36584243427276
H           14.10705103416374       23.63038175523443       19.00340496341250
C           13.67328238904011       21.77570344735521       18.03128125201167
H           14.56332349917052       21.29453472907962       18.41853779515127
C           14.73170807129216       19.09934425858077       16.20154916548762
C           15.12768121670464       17.79314370830475       15.88889060406393
H           14.40641530900322       16.98462183921165       15.95439360210269
C           16.42577628581391       17.52122329409070       15.49238304996015
H           16.71383983856285       16.50077387335530       15.26928535458010
C           17.34379886049000       18.55611415059711       15.36932039830114
H           18.35856313652322       18.34519996409940       15.05338361938559
C           16.95273375691838       19.86065340151222       15.63199332923846
H           17.65907463278338       20.67500353580603       15.51899933420507
C           15.65619563432798       20.13369628384245       16.04549665450363
H           15.36504501867283       21.15849998342731       16.24158775738009
C           11.84588389092343       16.20786856836174       20.75151095418101
C           12.48046929726635       14.98293588927127       20.52313146081677
H           12.33125217775238       14.47549745308280       19.57560888929651
C           13.28983066698149       14.40903646044267       21.48990222211651
H           13.76697181960290       13.45570660799959       21.29495728986538
C           13.48836399973279       15.05683671448101       22.70097267240840
H           14.12060061932761       14.61000793181824       23.45905192041775
C           12.87415038180901       16.27929313674290       22.93865231048779
H           13.02833998575296       16.79033390184022       23.88182101278968
C           12.05680840655129       16.85180053921854       21.97674116068776
H           11.58200759731282       17.80344570578707       22.18156661252625
C            9.20424684147509       17.33112022474213       20.21653890226055
C            8.86178424460246       17.04089367865420       21.53715219373927
H            9.55588103234667       16.50471761862833       22.17306435371053
C            7.63102282644944       17.42886470836639       22.04928261404191
H            7.38712458520364       17.20466180805271       23.08123270540316
C            6.72061367753623       18.10087241784572       21.24801065737674
H            5.76035235041575       18.40506083666505       21.64732699269981
C            7.04121537762387       18.37546188511785       19.92456269776853
H            6.33761931260775       18.89869659434257       19.28955288283044
C            8.26795117810248       17.99206301301453       19.41233893733540
H            8.50795264259491       18.21788585545945       18.37838434238025
C            4.33774701127574       10.35687006257111       16.07719519272509
C            5.34339935963241        9.42371111081037       16.35174917000487
H            6.38275579511834        9.70810535497275       16.22547208123025
C            5.02522752977690        8.14335647133793       16.77755934608705
H            5.81692560160832        7.43491912166710       16.99131286830974
C            3.69512273877289        7.77399421346729       16.92668977944364
H            3.44361092558491        6.77231093053464       17.25450477048884
C            2.68788247591274        8.68957290008988       16.65385657358802
H            1.64867645739875        8.40456914962395       16.76984128274173
C            3.00213750835467        9.97396800542899       16.23676262972940
H            2.20558148618072       10.67966625025326       16.03173783045043
C            3.55434899866161       12.71084295999844       14.53767004806004
C            3.34840318215705       14.09408075641123       14.47026755211976
H            3.91649795198071       14.76423218504016       15.10585119565346
C            2.41294264471776       14.63087879590195       13.60029326684122
H            2.26005026435674       15.70273774142634       13.57397874974230
C            1.67281981678230       13.79727165719304       12.77309359737520
H            0.93629235933750       14.21625672215887       12.09792105408340
C            1.88546521201979       12.42647711022795       12.81033423899715
H            1.31750993953408       11.76945208203027       12.16207650981737
C            2.82777299846556       11.88716481745260       13.67253844740274
H            2.99647324402805       10.81605837278405       13.67557574101144
C           14.88357980410733       10.21832423471205       12.52947018900763
C           15.36410424470967       11.48589220614828       12.19765565980606
H           14.82354962446522       12.36527889010705       12.52585365089221
C           16.52824876704686       11.63851496356797       11.46205162176136
H           16.89028509528184       12.63339698204614       11.23048839806287
C           17.22442358943324       10.51828657070181       11.03019277716355
H           18.13456508831819       10.63247541511980       10.45320548897151
C           16.74919629789102        9.24993002320149       11.33628370102164
H           17.28640499833602        8.37187342232753       10.99686436018104
C           15.59043844924002        9.09672535644168       12.08078526611117
H           15.22793475842184        8.10127558482917       12.31004656480416
C           12.62844368126582        8.52662922405140       12.96770509699488
C           12.15730442517283        7.50583634292214       13.79506821844629
H           12.28031937866037        7.57010081299808       14.86799491863303
C           11.50583579957743        6.40803752819740       13.25199690465830
H           11.15043131179532        5.62118191852449       13.90702604713155
C           11.30531517278681        6.31678436244559       11.88222081177355
H           10.79574334255219        5.45769038161150       11.46193622708602
C           11.75322432443151        7.33570608009866       11.04977882582154
H           11.59273270214497        7.27600956002458        9.97926227170414
C           12.40360483772630        8.43362325774790       11.58739619778433
H           12.74629834997423        9.22956911660819       10.93363757515932
C           13.28862544551209       10.42044657939022       18.31357776601354
C           11.97756369898543       10.24493223096103       18.76325755680334
H           11.20128456280035       10.90729791665362       18.39825118116313
C           11.65253664385508        9.21789596571052       19.63401259607392
H           10.62717969996825        9.09624672264208       19.96334928529440
C           12.63694118724706        8.34161260908383       20.06759123512574
H           12.38668788310276        7.53355630894254       20.74486694840101
C           13.94299374647342        8.49631380799505       19.62254328174349
H           14.71443686601611        7.80970771662542       19.95142711956375
C           14.27045322366122        9.52531556689645       18.75341925863516
H           15.29372750872639        9.62447438299643       18.41354923805580
C            5.21635848441155       21.31277291033264       13.81501279150505
H            6.01518031632021       21.02164014426026       14.50767759592091
C            3.89983091977814       20.63980731414318       14.29313791273043
H            3.34870456894039       20.27746017275997       13.42091559441693
C            5.21222015651397       22.84496972004802       13.84295515169598
H            4.46998166979292       23.27508477141511       13.17302515525419
H            6.19864123048814       23.20572998415469       13.55502644606150
H            5.01980241254255       23.19472641924738       14.85628451442807
C            2.96275823458337       21.59403316318361       15.04215069754734
H            3.45339563131962       22.06408921904117       15.89213169686167
H            2.09333243899465       21.05050214859119       15.41029978448466
H            2.61032319931729       22.37047250928595       14.36370918549345
C            7.10642129180620       11.58724991724480        9.21345566943766
H            8.16131784443759       11.57813898589018        9.51656720053834
C            6.85449823864839       12.93953507267164        8.49458232711406
H            6.36346014168643       13.60883732498038        9.21324625957184
C            6.89066794583078       10.34341066183497        8.35247497325016
H            5.85363115205983       10.24648889456472        8.03512994870576
H            7.15999229619457        9.45533307733850        8.92455372717509
H            7.52653635031055       10.38603489538479        7.46845141043005
C            5.93954414763046       12.86170472454751        7.27451224412397
H            6.35983643816154       12.23300272020333        6.49122022235300
H            5.78595760552745       13.86189547085756        6.86959901313970
H            4.96991915789058       12.45703213368797        7.56599674514499
C           13.77969281944162       17.38881801311805        9.62087770210546
H           14.00801376279860       16.73553571196738       10.47434808035935
C           13.41004284190799       18.78209342557114       10.19559004870856
H           12.31398043259625       18.85033355720618       10.22795655567773
C           15.01643041709256       17.37678666073082        8.72391519324160
H           14.87317216203447       17.97936333174324        7.82848458729592
H           15.23912089406143       16.35364221698964        8.42144798402469
H           15.87384193864441       17.76560462534763        9.27310827373569
C           13.89592099326582       19.97382266918027        9.37375710205969
H           14.98175571582387       20.00459452943124        9.30497688717586
H           13.55319548888821       20.89794301713243        9.83909025300293
H           13.48304722405978       19.92288927514213        8.36597276399980
C           12.85900534543502       18.29897911252049       18.25050531682468
H           12.92400656544109       17.26673682352381       17.87662512634604
C           11.44623200509490       18.48010555689289       18.85075217667391
H           10.77805976903170       18.74137291193354       18.01666365075556
C           13.99222863138394       18.48329376705519       19.25860505317456
H           14.00970230245575       19.49184197979637       19.66720912856835
H           14.94959484066020       18.29339980610353       18.77488088601766
H           13.87677567538515       17.77739185028803       20.08106628884649
C           11.33931180400619       19.61181302524214       19.87310128741614
H           11.93571277257937       19.41445551256372       20.76161579882305
H           10.30079872535403       19.74158297542551       20.17509184361385
H           11.68356114603005       20.54399967213149       19.42747375829375
C            5.85229505845186       12.70575875657014       18.15472440133789
H            6.71241473506501       12.39653034187560       17.54333892233150
C            4.69537183819202       13.02103067484870       17.17820738453272
H            4.83336344637624       14.06315561986071       16.85787015049711
C            5.57424054790659       11.56751640534935       19.13497197128408
H            4.73694826195757       11.79191564464577       19.79256804970962
H            6.45696163078274       11.38733993441969       19.74788532351978
H            5.34630215037406       10.65415482033280       18.58624136985869
C            3.30627558162210       12.91714113860434       17.80610641072102
H            3.07961696827469       11.89577318429583       18.10855306341790
H            2.55261331968810       13.23662536886756       17.08697450237742
H            3.24204285886548       13.56109274806123       18.68254535994998
C           14.06596423378904        9.79305760974183       15.28103371410300
H           13.19157902689921        9.54347887374932       15.89590377411790
C           14.65341678004403       11.14718594372171       15.77978776463284
H           14.49561648602046       11.89293372230408       14.98878934928495
C           15.03349125708840        8.61131816590086       15.37596643154438
H           15.92879748469271        8.77126196080263       14.77743289595576
H           14.54592643085865        7.70319206411045       15.02415653167092
H           15.32731135543308        8.45476849807105       16.41319580226629
C           16.16209619486847       11.15941337091944       16.03169765243371
H           16.45848507321144       10.50400830800399       16.84819023977045
H           16.47261653123898       12.17626368827692       16.26827397693661
H           16.68408188937984       10.85584085340197       15.12450466027346
