349
 energy: -558.977095140672 gnorm: 0.000079133285 xtb: 6.5.1 (579679a)
Au           5.71416412151126        8.90542943796671        8.78033240043465
Au           7.36597456812525        9.98982091225028       10.99322194350898
Au           1.24588220023219        5.16214393925415        6.11252080681171
Au           3.37611649904135        7.83970708879454        7.47948587720648
Au           3.63619189066744        7.26319470075584       10.52742261194706
Au           2.56954076391965       10.05466205313134        9.33654515822231
Au           4.72679913966063       10.27529870332748        6.16341392400144
Au           6.12996932836299        7.40958542515283        6.17225199491639
Au           6.65142690640479        7.04534397830375       11.05716644071374
Au           3.87047599870756        6.32846818546338       13.37539445855325
Au           1.11355879843729        5.23244952431979       11.04205569297653
Au           8.06046052107703        6.99516276432183        8.50216337325860
Au           5.45772521057803        6.02833409726397        8.57745142107394
S            5.23871761398604       10.86426247999335       10.47221978088578
S            9.56898559787640        9.24788660792442       11.46941290244852
S            1.21185331425499        7.54075607094970        6.17753789569227
S            3.17412739947009       11.44945252370524        7.50916352962953
S            6.34398350092326        9.41308788246832        4.66316952325088
S            1.80588151833845        8.84504177320674       11.22027992115061
S            6.10707089834814        7.02242941387512       13.54561166794291
S            1.61308497958287        5.63983082789214       13.33990783674192
S            0.32420686095195        4.55367348715102        8.89891181805521
C            5.59583200442914       12.46715654146742        9.71427303031919
H            6.35742666823889       12.36352623620616        8.94265826182544
H            4.67161364578940       12.79905225256766        9.23899404065239
C            6.03244912630796       13.49269021114708       10.76048839206775
H            5.30193504628665       13.50589662150097       11.57381899588976
H            6.02809053973645       14.48131908288258       10.28693821272429
C            7.40744249286774       13.21929487791526       11.31201391338482
C            8.51865812560559       13.23517413053921       10.46907636243977
H            8.38936296637520       13.44601746272386        9.41397708606713
C            9.78932416898397       12.99814691829398       10.97049213246095
H           10.64096232932007       13.00511004176766       10.29892983036095
C            9.97065954177175       12.76145603965756       12.32635325231366
H           10.96529253340142       12.58820374982078       12.72175232158385
C            8.87165866309816       12.74915726289418       13.17403736889123
H            9.00547494557470       12.57947390393014       14.23680208065889
C            7.59623633316019       12.96344973871301       12.66826362174116
H            6.74351339995679       12.94773626831042       13.33855980730665
C            9.66933586452168        9.29354684368287       13.27058838310487
H            9.43777525061436       10.30680961764751       13.59708071452229
H            8.94459473747072        8.61142065815222       13.71333777616755
C           11.07424919713993        8.90565660050982       13.72633966938016
H           11.29203523586541        7.89277900142805       13.37536123142765
H           11.80310332194147        9.58590204086896       13.27811730921149
C           11.13843673439626        8.96491713935344       15.23025043790523
C           11.67853225666435       10.07300473829997       15.87635706237636
H           12.09617819076221       10.88684797100485       15.29291243177643
C           11.68887168340517       10.14220437186045       17.26315243837383
H           12.11903542772683       11.00718423209716       17.75633842003209
C           11.15198712553278        9.10769323299326       18.01774698199110
H           11.15867955719509        9.16378749124794       19.10055802995952
C           10.60488203358032        8.00214534964495       17.37974678077157
H           10.18194128093576        7.19075408883413       17.96191178316764
C           10.59761649769673        7.93266133335229       15.99434624672747
H           10.16836777740776        7.06617652176997       15.50424426852623
C            1.83607811573139        7.95840353492638        4.53594333084845
H            2.84710657700617        7.57257958725619        4.40888049468707
H            1.87397854862065        9.04720093169245        4.47186572289795
C            0.93686303109399        7.40241213583535        3.43561629914310
H           -0.06215237146643        7.83697596746935        3.52085254120846
H            0.84757621636663        6.32124301856491        3.57676212878159
C            1.53565558708886        7.69843355675164        2.08646295376846
C            1.00229298477023        8.69064223936739        1.26845655497430
H            0.11866426483305        9.23450019785830        1.58593544732194
C            1.59178282048192        8.98321271361118        0.04502529942621
H            1.16676683199104        9.75610677310199       -0.58617700751108
C            2.72390369743137        8.29355087218718       -0.36750521267586
H            3.18531528591027        8.52648848864814       -1.32071782504524
C            3.26061554273697        7.30295567101249        0.44456992652412
H            4.14343790832892        6.75801619722231        0.12800886925155
C            2.66913235211168        7.00653675659504        1.66307739526417
H            3.09928711038933        6.23241060257963        2.29234928489449
C            1.78268184912549       11.61911315187622        6.36949352479805
H            1.69088457447990       12.68871295323003        6.17259346433820
H            2.03125209412256       11.12730793672708        5.43012998462945
C            0.45800000911566       11.06881178556129        6.88857740021943
H            0.11739904225498       11.66722081569310        7.73869676236820
H            0.60141891994588       10.04119278638211        7.23219048371731
C           -0.56101199001263       11.08975831000227        5.77472771337389
C           -0.90969406652549       12.28811282837520        5.15377836626593
H           -0.49068013562889       13.22456353833008        5.50691827238456
C           -1.79132578348990       12.29457862432430        4.08245363955477
H           -2.04978947161117       13.23309553633160        3.60367525443526
C           -2.33995725226741       11.10511114658540        3.62176455235061
H           -3.02442106362402       11.11123104216298        2.78064752792424
C           -2.01072111544598        9.91024528491415        4.24621820113208
H           -2.44211369987185        8.97804024683751        3.89801109101556
C           -1.12630864637201        9.90388985804324        5.31530392669041
H           -0.86328381473431        8.96565965140410        5.79364005201595
C            5.39849455852734        8.99598471354563        3.17783933270207
H            5.91763570533839        8.17341236545653        2.68330845173105
H            4.39584933565647        8.65785592907257        3.43471346397556
C            5.32722058478349       10.18864252106890        2.22269593777661
H            6.34281943326130       10.54500726365352        2.02908960992845
H            4.89922423045705        9.83749370074763        1.27730826025294
C            4.48363519998817       11.30703941541165        2.77521946363244
C            5.07236604420510       12.36713440022474        3.46148014918056
H            6.14829302906575       12.38913010766751        3.59211776245432
C            4.29481089210555       13.40263037982578        3.96163724298574
H            4.76712825840593       14.22355733336862        4.49006076996097
C            2.91888290560053       13.39019809650104        3.78073684811273
H            2.31210564082349       14.20627813125991        4.15685934711837
C            2.32161100022319       12.32668528706524        3.11512067523080
H            1.24577183808911       12.30743169323259        2.97803053709617
C            3.09952067488381       11.28959559842564        2.62074638730001
H            2.62599701707164       10.46705605294881        2.09682449882542
C            2.48118804163085        9.88981087793795       12.52895490973770
H            2.46236412604648        9.32080343240285       13.45947869955591
H            3.51142396867662       10.17249207174202       12.30723689052894
C            1.61172163654038       11.14144286823055       12.64779204216885
H            1.54881978107181       11.61246789667564       11.66302077006531
H            0.60129132327069       10.84326949146821       12.94187017945488
C            2.17993235032118       12.11848548280877       13.64240484788061
C            2.02668680090268       11.90952921404565       15.01131944202452
H            1.49695829242761       11.03196547659205       15.36656316076637
C            2.53087272420815       12.82688035583351       15.92243873595108
H            2.39656347415529       12.66084298304919       16.98579636259933
C            3.19861462093194       13.96016217258571       15.47556625855589
H            3.57425418191825       14.68623735121618       16.18788836213307
C            3.37600910310909       14.16198091375888       14.11324530104591
H            3.90298639241328       15.04088570141531       13.75813555617883
C            2.87038012687672       13.24499742127534       13.20319210250032
H            2.99755543695532       13.41464108951814       12.13930308924016
C            6.01484143072595        8.76291316358835       14.00920916356724
H            6.93851646666634        9.23062262611368       13.67040575517960
H            5.18755560219324        9.26552497650782       13.51058506776427
C            5.89914131905483        8.90910731686304       15.52929643026316
H            4.84957626060041        8.83426359309786       15.82653500144603
H            6.44816064933345        8.09499196804750       16.00976777825231
C            6.48772923209227       10.23549039437083       15.93287502416429
C            7.77375538922415       10.29910289826657       16.46197399689529
H            8.32862247813592        9.38375811007740       16.63733350342134
C            8.34824533228845       11.52379145547304       16.77056450464440
H            9.34994882395977       11.55955525467212       17.18476082959786
C            7.64391157488414       12.69910090192313       16.54607033815511
H            8.09078993695231       13.65704911157817       16.78744555191699
C            6.36250631580792       12.64196075166751       16.01325753622603
H            5.80726387463410       13.55640494746819       15.83728564643444
C            5.78792575325860       11.41750454067094       15.70515523063916
H            4.78750597652846       11.37869666816623       15.28846467217843
C            1.71848813199283        3.96272035520754       13.99934410744081
H            2.61200340791410        3.46561608351146       13.61697532667600
H            1.80702387816121        4.04717558220035       15.08324342353653
C            0.48817333625245        3.13726275653197       13.63374139636941
H           -0.40315268817961        3.57630205721608       14.08969772081029
H            0.35782040483123        3.17007544549518       12.54743972592861
C            0.66558290776893        1.70522066668137       14.07042783144124
C            1.60335166810237        0.89448337322823       13.43353525135662
H            2.20942960052575        1.29789071813171       12.62964879155279
C            1.77328500415041       -0.42503031612938       13.82124730163716
H            2.49505832023003       -1.04908523404732       13.30532522860696
C            1.01550998604180       -0.94934817083305       14.85980164824756
H            1.14723897915224       -1.98199788309898       15.16349411463847
C            0.08820113565696       -0.14500513473592       15.50706621961679
H           -0.50529409651970       -0.54740860941143       16.32114299607905
C           -0.08648814792732        1.17529919451273       15.11415314756417
H           -0.81770725561479        1.79569368639390       15.62196416527802
C            0.28772048272078        2.75393946423586        9.05887603511894
H           -0.56801959071367        2.50249062826100        9.68613782854417
H            0.12415380258936        2.35232705654022        8.05698006196640
C            1.56994332573862        2.18825194117327        9.64853407834441
H            2.40359868837503        2.47197303055980        8.99869431545350
H            1.75725548541807        2.67271248660183       10.61326791456713
C            1.62097704328387        0.69660435016596        9.85611041011965
C            0.51514475760550       -0.13718399550379        9.73364741901312
H           -0.45055588881319        0.26597008365020        9.45191700891146
C            0.63335434680446       -1.50025543412573        9.97745186764019
H           -0.23823598986997       -2.13830483764491        9.87940151065785
C            1.85361677845525       -2.04636266130186       10.34751911972587
H            1.94017201972787       -3.10969467957675       10.54008582160976
C            2.96524677918942       -1.22101866693229       10.47067345269720
H            3.92511475360008       -1.63539396479016       10.75840367635159
C            2.84528733737062        0.13680576245177       10.22343487679345
H            3.71328813374734        0.77952657408765       10.32579314801910
Au           5.19659143569143        3.15256255976661        8.37081120319124
Au           3.54013917574516        2.06890950988974        6.16279944216591
Au           9.66040539658051        6.89725983162094       11.04742616020076
Au           7.53854416803286        4.21248435161497        9.66778252041734
Au           7.28010312422226        4.79336848544015        6.62783064165155
Au           8.33788513398972        1.99338348126687        7.81451934137063
Au           6.17810526548827        1.78169622059656       10.98806496079963
Au           4.78848886492465        4.64893281907996       10.98381688715764
Au           4.25653813498076        5.01621510497141        6.09957423750649
Au           7.04325187669838        5.72921826565875        3.78219017677767
Au           9.79775994813143        6.83797123949427        6.11335471140382
Au           2.85342867867333        5.06235710836586        8.65476755678905
S            5.66658018939679        1.19042959388173        6.68065185096663
S            1.33676179108915        2.81131014620070        5.69061138084198
S            9.69529144232072        4.51905394815178       10.98040877678546
S            7.73018161106458        0.60385472157022        9.64463661393687
S            4.56081330403338        2.64420624994285       12.48821752934989
S            9.10002487219008        3.20143794575558        5.92938283708193
S            4.80549320110236        5.03938902145415        3.61299073228921
S            9.29920845947787        6.42319725988160        3.81667195086338
S           10.58583694154201        7.51597049507621        8.25742506885532
C            5.30578153556175       -0.41069433605712        7.44064691777869
H            4.54403332306951       -0.30442645352837        8.21173548323028
H            6.22904566618297       -0.74399538520638        7.91678649888369
C            4.86741513905489       -1.43672215453457        6.39561821013397
H            5.59769835819420       -1.45183448628317        5.58212288889904
H            4.87051018917470       -2.42484397347268        6.87023785822584
C            3.49264331150525       -1.16210564341894        5.84413814854392
C            2.38144989070722       -1.17736413832353        6.68709620700512
H            2.51070032541152       -1.38832840706290        7.74217423458857
C            1.11087893759368       -0.93973140755766        6.18573637047543
H            0.25925576368314       -0.94629119050167        6.85732393571048
C            0.92961387910128       -0.70306558464214        4.82986311777243
H           -0.06496004957626       -0.52949204468183        4.43444330505513
C            2.02861902117567       -0.69124355759611        3.98216435633523
H            1.89484557814716       -0.52156556445615        2.91939236760356
C            3.30395509078796       -0.90611388441836        4.48790885591849
H            4.15666222340022       -0.89085913763909        3.81758262611277
C            1.23292232285534        2.76369089122684        3.88972502401768
H            1.46493097709383        1.75035035339195        3.56382256685873
H            1.95607704860882        3.44606624350549        3.44476895470068
C           -0.17333005223222        3.14949510852355        3.43635775144620
H           -0.39176893682392        4.16237381605917        3.78692218945143
H           -0.90046953022367        2.46865735029494        3.88646204845582
C           -0.23995947059790        3.08887764311510        1.93262609427303
C           -0.77979139210401        1.97966264849998        1.28826140556539
H           -1.19581606114617        1.16590987859632        1.87299247742748
C           -0.79184319644361        1.90920276113343       -0.09846409014529
H           -1.22176051596271        1.04333770416691       -0.59030808884422
C           -0.25691300412667        2.94353903847606       -0.85470273317456
H           -0.26486394047626        2.88639486491993       -1.93744915700084
C            0.28987036947552        4.05023632115961       -0.21842617782254
H            0.71130580532550        4.86151406115704       -0.80184510698847
C            0.29877548574597        4.12099371558213        1.16688630172050
H            0.72773298777637        4.98835585034676        1.65566427462434
C            9.06311021296237        4.09966212114139       12.61854256452920
H            8.05205375223099        4.48663511880588       12.74204658755548
H            9.02351283453812        3.01078979773645       12.68044695765833
C            9.95848908103831        4.65235964956956       13.72366431474247
H           10.95878566199589        4.22081281990756       13.63819839345840
H           10.04520032931718        5.73447701480018       13.58838916022596
C            9.35766126187022        4.34707616648673       15.06986612270532
C            9.88939723465685        3.34854812779247       15.88122477915996
H           10.77331202730995        2.80673502160897       15.56104420643238
C            9.29789665414175        3.04701027636289       17.10150765442966
H            9.72171377613551        2.26933575983622       17.72762364328104
C            8.16527952523491        3.73388745969106       17.51737292990733
H            7.70225772108746        3.49392551738567       18.46806121320895
C            7.63024844240385        4.73080357681345       16.71194640024036
H            6.74710615687706        5.27362221529055       17.03123402026468
C            8.22381903347116        5.03621253012927       15.49665448971947
H            7.79522480692613        5.81539267759210       14.87255476207321
C            9.12008140192651        0.43251389404328       10.78591043319212
H            9.21244425306542       -0.63748222432928       10.98041431588183
H            8.86954838882850        0.92190406221310       11.72602289425600
C           10.44515963358960        0.98507827263162       10.27027028295344
H           10.78764417512781        0.38876508400390        9.41943386292286
H           10.30157056472545        2.01332017102115        9.92861707099749
C           11.46220465683806        0.96229955736437       11.38586978156741
C           11.81122793820435       -0.23736197148787       12.00410507274059
H           11.39399338508697       -1.17333366944340       11.64759962339332
C           12.69099464616946       -0.24573049949326       13.07694182518404
H           12.94983212989819       -1.18526366451919       13.55352240669934
C           13.23728028926967        0.94313243933887       13.54196223515264
H           13.92029409164655        0.93550550587696       14.38424473930752
C           12.90760953330152        2.13934235117304       12.92031443529403
H           13.33715444836822        3.07111859840964       13.27193734966739
C           12.02515294521436        2.14758223219473       11.84963182868558
H           11.76195608871741        3.08680707393028       11.37331205512154
C            5.50476450572516        3.05201703189987       13.97710679179996
H            4.98821801804005        3.87512605529743       14.47346178476633
H            6.50952326655541        3.38643860911989       13.72366319244384
C            5.56851288613408        1.85540126771289       14.92782148598690
H            4.55089689924548        1.50287049023768       15.11783204202973
H            5.99604447040980        2.20088439342564       15.87550292977253
C            6.40824824572116        0.73544542971166       14.37258370048215
C            5.81608678249847       -0.32006528171546       13.68224197338544
H            4.74023365339842       -0.33737585089088       13.55039660905520
C            6.59007475035021       -1.35686676456133       13.17929381988202
H            6.11506333090991       -2.17413849123638       12.64762101846852
C            7.96586254898257       -1.35039184948094       13.36152352267816
H            8.56982548047351       -2.16751800261207       12.98315190890690
C            8.56660310690661       -0.29146954037020       14.03132207765631
H            9.64237004409119       -0.27686297735251       14.16956634628286
C            7.79227625142452        0.74702997221207       14.52835726155578
H            8.26850716168277        1.56611341019515       15.05523753014218
C            8.42073128675218        2.15757602128674        4.62211762075891
H            8.43924436315687        2.72625660972483        3.69138008394187
H            7.39035586096740        1.87653972252006        4.84532058012987
C            9.28822874714098        0.90459355721168        4.50253026824502
H            9.35207325894759        0.43408124400454        5.48749014002459
H           10.29861314281259        1.20123916726459        4.20673303719678
C            8.71741448765812       -0.07251566842626        3.50947965485336
C            8.86927127571063        0.13488509963213        2.14016908657771
H            9.39968655690355        1.01141659710968        1.78340590154422
C            8.36289994496000       -0.78278103855911        1.23056726731741
H            8.49614997653234       -0.61797061304319        0.16688505198487
C            7.69427058038520       -1.91477788365425        1.67935503285042
H            7.31691073635217       -2.64112220763082        0.96821635030853
C            7.51831789516603       -2.11505458897423        3.04209740421107
H            6.99072339202668       -2.99297753265620        3.39871558991419
C            8.02620111419717       -1.19781046290989        3.95062165557909
H            7.90024711121625       -1.36632355493175        5.01483356966669
C            4.89055092495628        3.29866843470545        3.14927881877862
H            3.96412230608167        2.83550367023949        3.48677363978418
H            5.71473040028608        2.79214874541567        3.64909503987152
C            5.00754139457554        3.15172019407211        1.62943963121224
H            6.05756814550127        3.22425557854519        1.33326367120407
H            4.46067949094973        3.96679485481599        1.14812985613860
C            4.41663598541215        1.82635927383168        1.22582107223635
C            3.13037791426473        1.76491533144900        0.69699841890808
H            2.57675785413776        2.68113784672188        0.52219646938249
C            2.55405327345845        0.54121553646228        0.38790065119758
H            1.55226080993188        0.50707616478138       -0.02620214644774
C            3.25667526822637       -0.63524506631375        0.61170627234349
H            2.80839988431804       -1.59240551469546        0.36979301432487
C            4.53818045529751       -0.58026771902202        1.14448800770580
H            5.09207326649606       -1.49561703969878        1.31997834363475
C            5.11463760575544        0.64318979215446        1.45305120906542
H            6.11515853561153        0.68030012589610        1.86966873278618
C            9.18842961966551        8.09847737589268        3.15335448326859
H            8.29330078090081        8.59360667845130        3.53451660508551
H            9.10009285851386        8.01108270716650        2.06967454119761
C           10.41593857623687        8.92908778278897        3.51680305129062
H           11.30862468258242        8.49251997072420        3.06114004516599
H           10.54697180655188        8.89880635301129        4.60309098869360
C           10.23282975128484       10.35962600356056        3.07747957824014
C            9.29395692236019       11.16864809718824        3.71493477665183
H            8.69131352054965       10.76501342241560        4.52128464704248
C            9.11845726038637       12.48666586315017        3.32460492314773
H            8.39573557189178       13.10936932045878        3.84084999738975
C            9.87184629168145       13.01118081548566        2.28295229995779
H            9.73584838043419       14.04267324972730        1.97720701505169
C           10.80029435841845       12.20853193282131        1.63520684423652
H           11.39039795478849       12.61111395262698        0.81875272097879
C           10.98044174403140       10.88970936161273        2.03063140869305
H           11.71244786304710       10.27064168082796        1.52233416579617
C           10.61617510255874        9.31605681877635        8.10005205973050
H           11.47377983871152        9.57111686504454        7.47678795975031
H           10.77413033051772        9.71716414600414        9.10306037181156
C            9.33463933364791        9.87806526953122        7.50536516773268
H            8.49909064426384        9.59151464505833        8.15152384994347
H            9.15290357387699        9.39339270445796        6.53963595508597
C            9.28005019107981       11.36961439365040        7.29774955639831
C           10.38365182216128       12.20621711236391        7.42137732659474
H           11.35000946324823       11.80559057188948        7.70446090356144
C           10.26238619574922       13.56892402057851        7.17700895751950
H           11.13226053270593       14.20916474126515        7.27604481937381
C            9.04129019841586       14.11189539934679        6.80509437551107
H            8.95238118804436       15.17494976305004        6.61204249290117
C            7.93190293669199       13.28376205655972        6.68069131868942
H            6.97141215122641       13.69563737564794        6.39145323630558
C            8.05488807173355       11.92632126053110        6.92856925084419
H            7.18857678124601       11.28147574546350        6.82526260560577
