427
 energy: -689.192542782761 gnorm: 0.000555228018 xtb: 6.5.1 (579679a)
Au          -0.24467900813155       17.33926851454449       22.98193417500756
Au           1.79504098196817       18.83437085161053       24.53837449879611
Au           0.37082622763170       20.67099128091500       26.39971400766939
Au          -2.55091032566413       20.32085939653487       25.98300570646045
Au          -2.94714628674758       18.22370752695560       23.88252960314152
Au           1.19939434701515       19.59194698855195       21.75003151833916
Au           1.59854956734573       21.70046141957225       23.91492577512252
Au          -1.16629636066046       22.64261468928623       24.84348584009310
Au          -3.29115730244948       21.08182865485931       23.23712981537103
Au          -1.84085697814524       19.20670664116900       21.33861457851194
Au           1.29483205889630       21.80018723495789       19.67941229125013
Au           1.57458147984592       23.93130223855063       21.87718057912894
Au          -1.23346867754368       24.79370697977691       22.73606604142058
Au          -3.27189512362632       23.18096862783977       21.07422951197105
Au          -1.68721066943416       21.34220560167943       19.18312958911523
Au           1.86562139002648       24.64455823941067       19.05605344704630
Au           0.30739862722694       26.42344128488270       20.86243328474544
Au          -2.59028091157079       25.93525909016887       20.36387294907107
Au          -2.81453067241414       23.86711924185558       18.22876404315229
Au          -0.05965095648895       23.07782124777736       17.41705119152354
Au          -0.73543142388502       17.90022882585511       25.91275884923743
Au          -0.71048019336595       19.90948707697819       23.93675952529216
Au          -0.68474566215491       21.92490680416714       21.96166964787551
Au          -0.66342783606314       23.94850528000917       20.00231548242780
Au          -0.65455278806451       25.97393191278534       18.04099980005076
Se          -2.41124491521446       18.90835842799902       18.85003627238981
Se          -5.36386520325992       22.19109329686302       22.19524852507645
Se          -1.74506773867147       25.11863338115699       25.22819810707638
Se           3.29578559685147       23.62269483588178       23.75494752066202
Se           2.85979550358429       19.76732022250624       19.79061397078463
C           -0.25076694552667       13.82395340288057       23.37615589823896
C           -0.64410634568431       14.21227689553486       24.65744582244286
H           -0.68604979054473       15.26547823824870       24.90715531947263
C           -0.97731728355934       13.27211986443932       25.61842326012246
H           -1.27365530026407       13.60400146725405       26.60665205313814
C           -0.92332668974228       11.92131364144482       25.30593114956040
H           -1.18125446845698       11.17922429715228       26.05224723361865
C           -0.53730562926163       11.51945271151292       24.03213542694372
H           -0.49447727134178       10.46475087013788       23.78591736639389
C           -0.20263476859596       12.46003157077994       23.07078871982407
H            0.09632532888725       12.13525785285726       22.08068372146993
C           -0.70064116812627       14.73425747921113       20.63747390238095
C           -1.81879025697234       15.49656217121541       20.29978874878339
H           -2.16864802630210       16.26245274529606       20.98263990325874
C           -2.48106657537040       15.29741863094219       19.09847989544442
H           -3.33314123785507       15.91800021019049       18.84596656837397
C           -2.04324005179181       14.31467362891535       18.22110203290204
H           -2.55711431537078       14.15821863541757       17.28000283903025
C           -0.94182721869479       13.53618895637566       18.55271583110084
H           -0.59631718429613       12.76703929690890       17.87178543225474
C           -0.26974086271352       13.74666470645157       19.74614842610762
H            0.60383439256367       13.14946957178485       19.98028952169742
C            1.91427483447365       14.80340208427005       21.73193522283355
C            2.40746299675995       15.34819464759851       20.54122383177332
H            1.74509294374235       15.91206411770357       19.89278949503792
C            3.72948972183422       15.15915248355135       20.17582261536879
H            4.09150507324303       15.56757793269319       19.23906978050887
C            4.58563856470399       14.44630334376367       21.00639235650783
H            5.62094616305597       14.29998478365917       20.72173203324012
C            4.11267316538747       13.92704692953107       22.20292710376057
H            4.77779526075378       13.37298156637696       22.85510893012359
C            2.78627031746184       14.10462651401348       22.56781200605115
H            2.42491892284114       13.68942608570337       23.50184538781907
C            3.60345922632743       16.07747139934975       25.71749480683087
C            4.47175497417295       15.01810951628205       25.44547276991588
H            5.37328131225234       15.18843058137003       24.86808733006525
C            4.17997348865344       13.74270502957207       25.90612800049972
H            4.86017122356725       12.92738057967023       25.68780211634016
C            3.02449561533478       13.50764022271336       26.64046956385727
H            2.79890654000899       12.50704040770397       26.99013782662389
C            2.15955683684347       14.55561824043063       26.92273810743471
H            1.25287151639306       14.38899801285955       27.49206855894071
C            2.44744641266071       15.82855536214032       26.46122876894071
H            1.76313461591602       16.64130848157907       26.67338136189024
C            4.80169978118692       18.61228888338365       26.41903267743567
C            5.57247373480678       19.73204435928575       26.08810080001365
H            5.64350970945068       20.05141535518157       25.05349446683284
C            6.25672872701003       20.42653991977047       27.07232968431554
H            6.86887327531097       21.27902038818890       26.80152218161297
C            6.15801901068271       20.03334005226792       28.40078042434754
H            6.69051136115632       20.58075115648007       29.16963560970206
C            5.37470496857349       18.93950567917788       28.74019979748022
H            5.29122285104120       18.63078240745542       29.77574062601654
C            4.69755243279975       18.23269461623886       27.75832259662776
H            4.09056896674505       17.37724338564389       28.03310474335317
C            5.04978307364823       17.62880262890199       23.74220293883538
C            6.42339985371960       17.45916529796703       23.94425352624889
H            6.81825069967645       17.40214093431553       24.95207938630687
C            7.28553327787381       17.37458976704065       22.86224566135313
H            8.34757977464738       17.24147904007890       23.03245186284956
C            6.79549091547570       17.46694644155064       21.56616274454512
H            7.47337645385915       17.41033852205703       20.72260826473286
C            5.43397535928445       17.63741216620884       21.35463475272169
H            5.03934279454854       17.71854754329170       20.34819339508908
C            4.56948902838583       17.70911707309156       22.43530446356440
H            3.50663661971541       17.83682453126627       22.26309716941431
C            2.77849042007035       22.32516135743082       28.44369191770570
C            3.18935700846202       23.14446783889494       29.50010416866591
H            2.62733499829715       23.15738997978489       30.42670100443443
C            4.30602241944715       23.95466429578611       29.36616569917370
H            4.61392401201498       24.58316798870629       30.19369785369899
C            5.02175087521476       23.97208514509162       28.17624919629126
H            5.88669015586754       24.61624056479058       28.07052999475430
C            4.62141302240615       23.16502712073456       27.11969235113454
H            5.16377848491053       23.18003725871929       26.18132376885733
C            3.51493429352340       22.34201007037646       27.25891362356909
H            3.21175704443725       21.70896192921200       26.43250425929045
C            1.80293407223258       19.81256927990298       29.51872658023958
C            1.26742556266559       18.56950717584795       29.17919780551070
H            0.58819745912960       18.49297547020694       28.33937547831960
C            1.58974639839749       17.43234783549985       29.90133345528073
H            1.15481489063296       16.48137726679341       29.61712867567547
C            2.46063338861143       17.52440318034256       30.97744111892190
H            2.71936964506443       16.63883872148216       31.54583441471639
C            3.00278998587285       18.75582239453156       31.32581103351702
H            3.68080292937580       18.83178141553232       32.16811205434474
C            2.67936200042530       19.89467693277136       30.60420159116224
H            3.11272003557938       20.84810892770171       30.88358307035960
C            0.15349471898769       22.16047340920278       29.59510369811082
C           -0.70437938714987       21.46809610936251       30.45327452647574
H           -0.63672232189912       20.38819663681403       30.52696336604103
C           -1.63736422978755       22.15303251221080       31.21579196487064
H           -2.29719178386845       21.60319389720694       31.87730771374006
C           -1.72228963612914       23.53615496111279       31.13697259452398
H           -2.44412069531234       24.07209525512978       31.74198787402840
C           -0.88528225317426       24.23209749027451       30.27404556319100
H           -0.94852159601291       25.31221176100052       30.20793346301880
C            0.03281426003462       23.54983700742203       29.49145935443786
H            0.66687634197090       24.09872928070253       28.80318264485563
C           -3.78438779187404       19.75689034107624       29.25300583477557
C           -2.77195796421315       18.79697848818369       29.21826074946154
H           -2.24512327584643       18.60921272850373       28.29082936430300
C           -2.43299731221096       18.07693834770837       30.35242608027989
H           -1.64785658648440       17.33212538832090       30.29516602189860
C           -3.10178663322836       18.31648203593736       31.54446728611745
H           -2.83985193137018       17.75983571427736       32.43655195279862
C           -4.10844806645274       19.27358597068139       31.59454635210796
H           -4.63189837400323       19.46205394813312       32.52478309382346
C           -4.45148551097966       19.99120199396879       30.45928528614473
H           -5.23632350419155       20.73749577983003       30.50932348043614
C           -4.33991882155999       22.41109527262386       28.22832820827951
C           -5.53000172274552       22.91744784765609       28.75973458855094
H           -6.38043116146020       22.26144519188635       28.90473810991348
C           -5.63660623404542       24.25914918516778       29.08998116683620
H           -6.56477892762217       24.63752844827502       29.50222552316667
C           -4.56567952828042       25.11874315987664       28.88311215528002
H           -4.65548469038368       26.17013885366604       29.12961934255058
C           -3.38058050895900       24.62686811024409       28.35310647236079
H           -2.54342063495016       25.29138091462294       28.17432702153384
C           -3.26717627739123       23.28199818305175       28.03828361037497
H           -2.33668043962795       22.90379362694475       27.62972507044784
C           -5.83663082991512       20.21112041711387       27.24237039073176
C           -6.45676358485996       19.04182858567145       27.68225092923349
H           -5.95064669785524       18.39486236300144       28.39002291988796
C           -7.72213516147033       18.70760831949113       27.22231236410997
H           -8.19601579512479       17.79846200358132       27.57379375735680
C           -8.38010148629383       19.53147068059711       26.32067810352975
H           -9.37005947079560       19.26894178062245       25.96650281310870
C           -7.76584160374631       20.69360287022749       25.86965098012966
H           -8.27617720582133       21.34445705886329       25.16877500074351
C           -6.49770699235433       21.02481643937156       26.31500006585503
H           -6.01634045148165       21.92764861871722       25.95265112837309
C           -6.37383080845873       17.40334906503907       23.35269913810943
C           -7.41380719704373       16.60719822085264       22.86322836107041
H           -7.31159224573422       15.52825069721328       22.85191398477265
C           -8.57603274531214       17.19057124552021       22.38242454383703
H           -9.37438783023001       16.56173112916515       22.00576742015274
C           -8.71908488619277       18.57159603543286       22.37957360751782
H           -9.62708307592835       19.02405792022831       21.99856381834603
C           -7.69224902581193       19.37161225159837       22.86258569523388
H           -7.78856996609365       20.45160758601081       22.86059493829400
C           -6.53222300078180       18.78972909623834       23.34777125757090
H           -5.73534474306226       19.42020519822834       23.72663679228286
C           -5.22325276622883       16.22108615195596       25.71851448100553
C           -4.21516433107815       16.28986653129239       26.68056359939189
H           -3.23455234727072       16.65345463171307       26.40133298828701
C           -4.44918665891226       15.89375017709106       27.98701991035317
H           -3.64529782644180       15.94833166100729       28.71158608510138
C           -5.70488585939307       15.42948634736605       28.35191838628388
H           -5.89562763455399       15.12060527256109       29.37295902588803
C           -6.71889745918015       15.35891757898117       27.40399692045867
H           -7.69961987715929       14.99224417045698       27.68456789946832
C           -6.48416843508994       15.75047801420345       26.09497732193244
H           -7.28375551513384       15.69254417804393       25.36523284252489
C           -4.57121080528572       15.15834865139288       23.13868984855421
C           -4.02339276744566       14.05557754982770       23.79885313826605
H           -3.80931119191908       14.11283856829593       24.86020196219512
C           -3.75567917416573       12.88521014623887       23.10669069713079
H           -3.33501003672922       12.03561254451571       23.63220315623195
C           -4.02605898608126       12.79961099100476       21.74809700950131
H           -3.82036259782956       11.88226950012680       21.20909563519831
C           -4.55854232868424       13.89419766035556       21.08041620639028
H           -4.76961586175732       13.83333747637283       20.01906173993669
C           -4.81596855483779       15.07188753490715       21.76475037911159
H           -5.21602535804815       15.92794246653287       21.23199329007394
C            5.22629568094642       24.04572600653939       18.14535722107528
C            6.60248936764557       24.29182050561087       18.13469754849423
H            6.97072487904577       25.31101656631951       18.15511630437592
C            7.50240579176248       23.23775907816900       18.11287871975038
H            8.56666357992213       23.44227925378142       18.09912612694377
C            7.04712389500112       21.92560584967582       18.12142086329572
H            7.75426148408097       21.10448665301016       18.11405736191340
C            5.68321417165671       21.66994319949558       18.14917311636777
H            5.31425897258411       20.65057945123990       18.18122297358361
C            4.78317416104057       22.72267454514711       18.15123297059179
H            3.71875659785434       22.51637877729017       18.16491767415076
C            4.78146586388274       26.65629222812476       19.20769279886849
C            5.34108581552750       26.29567093361000       20.43771051794097
H            5.34395305550850       25.25417685776900       20.74245667509972
C            5.90244670659299       27.25681852066601       21.26174809584222
H            6.34720192374810       26.96310441190500       22.20557116817692
C            5.89330144337907       28.59292375227715       20.88227924258981
H            6.32798356540850       29.34435717808307       21.53095534292436
C            5.32550773177160       28.96165663485836       19.67133084490331
H            5.31408248021577       30.00289052662542       19.37063375391177
C            4.76935501946686       28.00232123415069       18.83871698364284
H            4.32699213093606       28.30058356632608       17.89511186808778
C            3.89088595708430       26.08789878847827       16.53552013879102
C            5.01855050590108       26.34848331598337       15.75130345473523
H            6.00631388545932       26.09246821314715       16.11701374190087
C            4.87778296730894       26.93429023144347       14.50266626152463
H            5.75899531196656       27.13538857560654       13.90440601232147
C            3.61807876457277       27.27051100434176       14.02050818209705
H            3.51753599723124       27.73294687416661       13.04568259243809
C            2.49204531892428       27.01262611088546       14.78927036031535
H            1.50238050255775       27.27320939077651       14.43270516451102
C            2.63223097621457       26.42188905762229       16.03441647516366
H            1.75049480220925       26.22207678729194       16.63028458572646
C            1.74493275230505       29.56881028377203       20.09730975910592
C            2.48158202402839       30.74521780318011       20.26386475380739
H            2.70756252744503       31.10943185517184       21.25942795637956
C            2.92747122432371       31.45011111128674       19.15645904804209
H            3.49475530132320       32.36297061989301       19.29708651109596
C            2.64481168845731       30.99747269760708       17.87290055414297
H            2.99305454813353       31.55711081046475       17.01279579999230
C            1.91696979792054       29.82936634466759       17.69657491085016
H            1.68129009385056       29.46445779409633       16.70371643064836
C            1.47645816086532       29.12192095243610       18.80305901159798
H            0.90951824925090       28.21063223613049       18.66016387614437
C           -0.21270391171652       29.66629784124878       22.19698643351647
C           -0.63664558997338       29.42839324149944       23.50827938007725
H           -0.14867177022329       28.66043845288127       24.09953904746191
C           -1.66459717799788       30.17508729711482       24.05965042426089
H           -1.97319745119993       29.99263043727415       25.08258028133161
C           -2.29990221861290       31.15220477067215       23.30413234793648
H           -3.10774322296450       31.73178864696033       23.73525176986289
C           -1.89740873790470       31.38298717087460       21.99654826799257
H           -2.39079663830374       32.14305601615315       21.40187914436816
C           -0.86291446553955       30.64431510859985       21.44261722887999
H           -0.55593470782203       30.83127073709933       20.41991225642747
C            2.36160802832566       28.58047806120875       22.77678649585729
C            3.07956490859118       27.40026457686326       22.97272907716592
H            2.87536681517654       26.54060673339260       22.34423389521639
C            4.04190505895499       27.30859229802180       23.96454299216210
H            4.56671896014243       26.37166053993407       24.11566140494995
C            4.31657108411360       28.40746497523706       24.76652359926763
H            5.07351961927125       28.34118453156000       25.53916519468087
C            3.61093882692559       29.58931903133600       24.58147521823474
H            3.81601110804471       30.44756757516958       25.21077768131175
C            2.63367587336208       29.67568231193234       23.60230527808647
H            2.07107078263947       30.59477426529557       23.48614386841215
C           -3.75052725922832       29.21432190579919       19.72393438937247
C           -2.65438840718870       29.18427722701259       18.86123444043793
H           -2.11116461025119       28.25821048397896       18.72088335367897
C           -2.25314824291298       30.31858136994472       18.17466923514531
H           -1.40616919233929       30.26052820327860       17.50108117739774
C           -2.94429839677690       31.50875256016507       18.35103459108951
H           -2.63747344769329       32.40073088868795       17.81768462170024
C           -4.03273126016473       31.55613250173662       19.21446326968488
H           -4.57483402723250       32.48440374934858       19.35346929661264
C           -4.43788552317763       30.41941528639004       19.89685103917314
H           -5.28934168404003       30.46881117424699       20.56582629068050
C           -5.84159927560703       27.24661175647134       19.79631177198996
C           -6.69941485624749       26.37541431019107       20.47556631568040
H           -6.42563225898468       26.00706248566900       21.45881588303478
C           -7.90275333671609       25.99151965732362       19.90712981832010
H           -8.56821526643004       25.33160072090379       20.45172901368758
C           -8.25552367758535       26.44859946089938       18.64387426312431
H           -9.19490883149529       26.14248386780220       18.19866362975079
C           -7.40105927022273       27.29671394399545       17.95430458499792
H           -7.66957784065349       27.65455414673115       16.96708518767819
C           -6.20034821835308       27.69306052653735       18.52327033068281
H           -5.53986421494979       28.35727175433175       17.97755511105289
C           -4.66837708158398       28.08917329505319       22.25716391742427
C           -3.76672555199332       27.75264607869837       23.26732398694513
H           -2.82965822388642       27.27244123321197       23.00844882709556
C           -4.05624711047829       28.01449330840528       24.59629723957322
H           -3.35107110862628       27.71967084422301       25.36555517851032
C           -5.24946007083304       28.63666198601972       24.93583747394758
H           -5.47688993041916       28.84688828094181       25.97431221594316
C           -6.15474470566118       28.98047958234358       23.94024949167822
H           -7.09099431309103       29.46033405605556       24.20070102248420
C           -5.87394258026290       28.70228902938674       22.61171086959456
H           -6.60022719092653       28.95226257291780       21.84702483224109
C           -6.16585284530620       23.27856828603128       17.24965395408454
C           -6.38033664523696       23.31637340451228       18.62792288872029
H           -5.61019816939838       23.71700276871639       19.27781827225570
C           -7.55992402997495       22.84155043260022       19.17711178672592
H           -7.69463681956585       22.85886561835232       20.25294074985863
C           -8.55474472963617       22.33650027708876       18.35143655091071
H           -9.48098469901110       21.96969467474104       18.77789269549679
C           -8.35458972250242       22.29375825601429       16.97770085197861
H           -9.12533097565319       21.89315385222421       16.32954156791289
C           -7.16710828244847       22.75172694408115       16.42847897391386
H           -7.01255587592813       22.69036729264795       15.35743576429676
C           -4.26250278965858       22.83300508723150       15.16475920555925
C           -4.34053474730943       21.44496201635706       15.31836533386797
H           -4.64548499460392       21.02501634872259       16.27134752645319
C           -4.04341223832352       20.60437570214454       14.25855015024408
H           -4.12297982037300       19.53081043581453       14.38488981598505
C           -3.64162703430923       21.13406952282922       13.03902025587193
H           -3.40375292951447       20.47447927903603       12.21273515069715
C           -3.54509650715990       22.50924947982607       12.88301136065162
H           -3.23034901545764       22.92824434790126       11.93426935397113
C           -3.84985264667623       23.35580445902437       13.93814565931238
H           -3.77019585148171       24.42887427203808       13.80687765991224
C           -4.90585451747154       25.53500579493176       15.90783216946773
C           -6.05127839671918       25.83422608162418       15.16421353558461
H           -6.80780173656767       25.07500543022904       15.00188176492588
C           -6.22500919671398       27.10330068134780       14.63377106161884
H           -7.11518375580208       27.32368985180805       14.05592332435415
C           -5.26375487383089       28.08741420522743       14.83321732476832
H           -5.40563235361649       29.07570240477424       14.41202506190541
C           -4.12447795988947       27.80149871287198       15.57197685124599
H           -3.36154642630771       28.55415470921254       15.73294871292816
C           -3.95335927493118       26.53498677767006       16.10641311488657
H           -3.06337870000574       26.31704550413843       16.68322589924007
C           -0.00980520166642       20.79426882132227       14.70614575724192
C           -1.00463306320049       20.17304366063119       15.46183985404283
H           -1.46590067696424       20.71070339472641       16.28276466552153
C           -1.40351069828941       18.87619957293504       15.18347011860081
H           -2.15886675259652       18.40401486889173       15.80173965775573
C           -0.82546768200000       18.18468724296205       14.12809291924969
H           -1.14078980942513       17.17252265634854       13.90356141435810
C            0.16533006610038       18.79121929504168       13.36704207420443
H            0.62605209677082       18.25226272055027       12.54733779651892
C            0.57947750409309       20.08167829073048       13.65733259097905
H            1.37287733504449       20.53393609686760       13.07361310055072
C           -0.21121646390234       23.59928904689336       13.91641201996089
C           -0.23890154400756       23.30561634105194       12.54986211920638
H            0.14702348391629       22.35933182176019       12.18867391585283
C           -0.76142319970218       24.22273154252067       11.65102085362896
H           -0.77453234271488       23.98618082329775       10.59330105444514
C           -1.25902438009254       25.44146419591618       12.09751960337652
H           -1.66114410612027       26.15462924708196       11.38763682960453
C           -1.23962092753438       25.74138533908678       13.45213916967088
H           -1.61728259259173       26.68885763042369       13.81836623276948
C           -0.72286963468294       24.82257429219679       14.35075553748708
H           -0.71077826727440       25.06097753012431       15.40684328219121
C            2.28003619676296       22.48499730493347       14.81824997957513
C            3.06383181062632       21.44500682291288       15.32841858401433
H            2.59046227478966       20.63006234413203       15.86642079793800
C            4.43573392447228       21.44245976056250       15.13903135489890
H            5.03058261467995       20.62268683955806       15.52507628506695
C            5.04784704695324       22.48780564513683       14.45937274508124
H            6.12210079556534       22.48710757138521       14.31667809494848
C            4.27991662339359       23.53198857348449       13.96458914643159
H            4.75246843033997       24.35085437329552       13.43459634514240
C            2.90486462557968       23.53509260804801       14.14395838080432
H            2.31330660767060       24.35555518300379       13.75415640822001
C           -4.28227771608977       19.09751163467981       18.74168446883676
C           -4.89757734467905       18.71447633684837       17.55440720230625
H           -4.29374912076886       18.32189984555007       16.74485427407442
C           -6.27345055926501       18.81884233038945       17.40758068659927
H           -6.73889426928484       18.51466993068554       16.47713722528464
C           -7.04839071983942       19.31124415479467       18.44840562654261
H           -8.12250778326592       19.39844741719042       18.33603829524241
C           -6.43794015808256       19.69273774738182       19.63492872139400
H           -7.03118671539338       20.08124974765535       20.45438462304136
C           -5.06464978487300       19.58083934187773       19.78065409092139
H           -4.59575705511926       19.87258561212009       20.71266562750867
C           -5.82476801235534       23.55043502355194       23.41440342421714
C           -7.07137605213292       24.15048062080534       23.27005774861020
H           -7.73052116159137       23.82261063136020       22.47489593199474
C           -7.47708215203472       25.15079229139652       24.14213643680115
H           -8.45193788626680       25.60810571273628       24.01794058334859
C           -6.63784250124047       25.56390004097003       25.16777290333838
H           -6.95032969130654       26.34811214703493       25.84700714425348
C           -5.39402063106095       24.96664446636136       25.31705027457452
H           -4.72558578272882       25.28213766894343       26.10985327664223
C           -4.99554143302104       23.96275065750801       24.44852496006477
H           -4.02516984242103       23.49798729976225       24.57245020493246
C           -0.15004847952529       25.87874475636197       25.88060342815143