623
 energy: -927.824448824997 gnorm: 0.000039176608 xtb: 6.5.1 (579679a)
Au           7.88747899686723       23.69306925178081        8.43518129862079
Au          10.54589059823412       22.75884428774850        8.41647447261318
Au           7.95251228844383       22.84757070130582       11.18438444448129
Au           5.76800813829342       21.04029928942396       11.46805533573028
Au           6.37513186089362       21.26444620374317        8.66958138416487
Au           8.50654073927328       21.59924150747808        6.78091838745535
Au          10.32934398254426       21.29469708387263       10.96235617099661
Au          11.06742794587621       20.17899011071770        6.98557519043204
Au          12.56044546397453       21.12165375131018        9.32514617016827
Au           8.38537804597840       20.82540520028988       12.87832310958396
Au           5.61585677174441       18.78519514755014        9.64792364479104
Au           7.79547269185082       18.98240602009375        7.81683447018617
Au          10.37489256366330       18.81157899486363        9.26085496571720
Au          10.07028151558715       17.61573620936882        6.65695288539495
Au          12.43235071341724       18.92250086794932       11.24006725598200
Au           7.09524613179092       18.41903249294559       12.16986399685405
Au           7.81562381167384       16.93425376332361        9.89056814888296
Au           7.50256003568549       16.14082022085151        7.07166669371220
Au           9.89854931366257       18.06206259538277       11.88369854479660
Au          10.14723945656950       14.86210870978020        6.40372384033644
Au          11.86917481076471       16.27990855148886        8.46312620743533
Au          12.01533314345034       16.13748609665070       11.30285315029918
Au           9.22482313668966       15.06379619192410       11.65086697429624
Au           8.79722478430017       14.55877509030064        8.88862325970920
Au          11.27435714006148       13.86521196104476       10.01550978412437
Br           7.13094184308003       25.30067513893329       10.42993743946356
Br          11.68795011385454       22.17793954096945        5.52386153068595
Br          14.71734546593049       20.03262260869910       10.42687946372294
Br           6.89369101531384       18.02340273575659        5.26667038431677
Br           4.93586507667544       16.95153668802887       11.56941811392838
Br           7.84298726648153       19.10397143955426       14.72247904478148
Br          10.32629394954269       16.27041887685864       13.96384414050911
Br          10.25568878590905       12.28689345798247        8.01298146690037
N           11.41840553778308       25.94187699451539        8.59758073704697
N           13.24009826250037       24.80597666628605        8.45893197258913
N           10.86669801193796       23.60794985677330       13.29266802801796
N           11.29019299982229       21.71335636058907       14.22624861649633
N            2.81012546067478       20.93394696340593       12.75850353200424
N            3.78275803201431       22.82334943448182       13.13874510894770
N            3.88353541902092       23.38697787491319        7.99983342163815
N            3.97531113409298       21.72383660624202        6.63138957631317
N            7.55898245497526       23.19164018735208        4.47339923483009
N            8.81831709055264       21.61110626997672        3.72784000337715
N            9.55176530077586       14.40804887323667        3.42303331709568
N           10.98286616297118       12.96754196012481        4.16133122904169
N           14.83568782344480       16.92726206855837        7.53519110924754
N           14.77549072777367       14.89300893457908        8.23946551996712
N           13.63383133092173       14.02047334858700       13.11629445706223
N           15.01530067593450       15.52040561860102       12.41605106809879
N            7.91134454532388       12.42049966532586       12.31427388143634
N            7.40975496148362       13.87604061033780       13.82828008571492
N            4.84930234481832       14.26477547116726        7.78357880747184
N            6.21676516881528       13.05037485665755        6.64701247852930
C           11.89761127260654       24.69423705649245        8.46795992483178
C           12.43999567839807       26.86292097584267        8.68791043380393
C           12.44114713740922       28.24589104930592        8.82651996963549
H           11.52160073530827       28.81359772727946        8.86929675294172
C           13.67519393695382       28.86676629134236        8.90619111878003
H           13.72397228258880       29.94464901529783        9.00731678312282
C           14.86483633440977       28.13117095918311        8.86589672684248
H           15.81008276846264       28.65508507177600        8.94774960653229
C           14.86752326933752       26.75418679231646        8.72337970189600
H           15.79680034298391       26.20303257128515        8.69742374915927
C           13.63119735616558       26.12276649487413        8.61683323127075
C           10.01332172869695       26.29367367294726        8.65410750485879
H            9.79500329731148       26.66208140561877        9.65909730487608
H            9.45502906975642       25.36276671251452        8.52000030317381
C            9.83552820315848       27.02280521609164        6.24076224212107
C            9.40856494744866       27.92997689536698        5.27718777930828
H            9.60549830132056       27.72297604163455        4.23064478239189
C            8.72132895219340       29.08678616931009        5.62840530887893
C            8.46161741169505       29.32544301671949        6.97166434821185
H            7.91295003124484       30.21563055278635        7.26063870191272
C            8.88571980936815       28.43980855410010        7.95861234507512
C            9.59201627512940       27.28586110761732        7.59669601079741
C           10.52947842055024       25.77016129597982        5.78428775050915
H           10.43464487014066       25.65246188060711        4.70536161181826
H           10.10404697429928       24.88820751356710        6.26370617666505
H           11.59064891374777       25.80587044580862        6.03052490398304
C            8.25277165894066       30.03888094779186        4.56344164180346
H            9.10394171725294       30.42405442664982        3.99940735627359
H            7.71385800803723       30.87971401503474        4.99915071816038
H            7.59126274169402       29.52486256319870        3.86356763037897
C            8.53238020398758       28.74256685388975        9.39232198920979
H            8.00375174148061       29.69321440473397        9.45994139926683
H            9.42454113033076       28.80466805261762       10.01778747708371
H            7.88429359419115       27.96256347505359        9.79736015706530
C           14.13001272154085       23.65937801802618        8.30813030226162
H           13.59334493751409       22.93915984770690        7.68277803522989
H           14.26319204841273       23.20852075686528        9.29400128347323
C           15.46983323027000       23.95487248377762        7.68033678618096
C           16.65303259026818       23.71403956952012        8.39314878482370
C           17.88075367028631       23.90709002291076        7.76651943287341
H           18.79332499490705       23.71517510000327        8.32096797799435
C           17.95946553618006       24.33275737777248        6.44593917177824
C           16.78074734129113       24.57588594113327        5.75085112450519
H           16.82628271713726       24.90896662752572        4.71937528098707
C           15.54038403345945       24.38911220010902        6.35001407554158
C           16.64680188331215       23.24165975251235        9.82368696168358
H           16.10014245775117       23.93813267176092       10.46142806599220
H           17.66647905064393       23.16545660940871       10.20096527443198
H           16.17926192423423       22.25884812562505        9.91265907352629
C           19.29356400377881       24.54484188363460        5.78598932251452
H           19.24149051025968       24.30849594596307        4.72295998635863
H           20.06041962236646       23.92434381837636        6.24967174468488
H           19.59448506319745       25.59008359600114        5.88619002448030
C           14.29797698776752       24.66198912646686        5.55158586390569
H           13.77829560551609       25.53610967595119        5.94753744825880
H           13.61242057569010       23.81366002541759        5.59778462085716
H           14.54371712520850       24.85245725862266        4.50723289395888
C           11.12157819129448       22.31160353260348       13.03017159157521
C           10.88401287756229       23.85566971915556       14.65005080230631
C           10.71267419818175       25.01250412682192       15.40185045391167
H           10.54173585143621       25.97397984596034       14.93931414763422
C           10.78623346409095       24.88827864380615       16.77837965236989
H           10.66918953366365       25.76969280447521       17.39805054426751
C           11.01187480179194       23.65066229332345       17.38923361950342
H           11.04830829249334       23.59521165137917       18.47104438588874
C           11.19775426009788       22.49811093416651       16.64590306223216
H           11.37753681041644       21.54976516526567       17.13199827949051
C           11.14780980689957       22.61842001479308       15.26075472816715
C           10.47244337274491       24.58151835952980       12.28478811528999
H            9.40528924121347       24.77716352062912       12.41374100371596
H           10.60465714648080       24.09656466741842       11.31349831186169
C           11.26130432111878       25.86751489821432       12.32565236398447
C           12.63946386433257       25.83445024966419       12.08875773894911
C           13.36943311378613       27.01749889934194       12.08166073187457
H           14.43802673399326       26.98127009755039       11.89751085704027
C           12.74771577073263       28.24181030520521       12.29224064889871
C           11.37603583541887       28.26642407066197       12.51885174809271
H           10.88084319085776       29.21768989339943       12.68338771871594
C           10.62392038066362       27.09613748015252       12.54360664475877
C           13.35346612038551       24.53417661481934       11.85000892282927
H           12.82375782116333       23.92080769196566       11.12018243208287
H           13.41909888740288       23.96439178350369       12.77736843075153
H           14.36465590421382       24.71507388461200       11.48716940347501
C           13.54229560914860       29.51801554134246       12.29450161484004
H           13.76257472441236       29.81661026041108       13.32171639320180
H           12.97994469410118       30.32389971062840       11.82203305669920
H           14.48677473825869       29.38873575192605       11.76626808655286
C            9.14247433127613       27.20019182688809       12.80123569073427
H            8.86500507658122       28.23502350440434       13.00101319880392
H            8.83997508345577       26.59551156322754       13.65773062042472
H            8.57438749589660       26.85604843685419       11.93562269463499
C           11.61067189492126       20.30043033416869       14.39593423120282
H           11.96458345736707       19.94031221012310       13.42314759774955
H           10.68796321223160       19.76344715240689       14.62827142740417
C           12.66073810660258       20.07421508486919       15.45442680557592
C           12.38270237018375       19.27648644488214       16.57386379085205
C           13.34820145655914       19.13030028233179       17.56447896297522
H           13.13006012035201       18.51468736741176       18.43076518985829
C           14.58072035569945       19.77006974043215       17.47394185081556
C           14.85576028713727       20.53255577192673       16.34593318356541
H           15.81755161812418       21.02517608332511       16.25092815073287
C           13.91781192110881       20.67534983186851       15.32829615606662
C           11.06771385133514       18.56165573483596       16.73689909938020
H           10.22928934960296       19.25985858966114       16.72127134184692
H           11.04418827941789       18.02092743499920       17.68295086368597
H           10.92113706099227       17.84107807672831       15.92932919735098
C           15.58885606963004       19.63154055819040       18.58106558187384
H           16.55751722904564       20.03000613625153       18.27983072487152
H           15.71050621313301       18.58397775343506       18.85979604560616
H           15.25083466891188       20.17748480784002       19.46421437721622
C           14.28648879105909       21.48647732500744       14.11708705110535
H           13.94514286562355       21.00626254017248       13.19968240628815
H           15.36720482057735       21.61443474874612       14.05735258538533
H           13.82769940598117       22.47505091648992       14.17233618905551
C            3.92003916225736       21.64587466135530       12.51179591332841
C            1.92501018784521       21.66532440619825       13.52729237799414
C            0.65075982383099       21.40263356577790       14.01764420111658
H            0.15354505307695       20.45983290313011       13.83155422958181
C            0.04697926587905       22.40443099296922       14.75892819574368
H           -0.94714330408470       22.24109859639257       15.15856860754065
C            0.68485755786233       23.62547173839532       15.00916494011535
H            0.17079411819365       24.37513711902561       15.59934426695826
C            1.95409047384765       23.89440098320537       14.52507662831461
H            2.45014516116483       24.83667468597791       14.71918323151549
C            2.56212362539803       22.89336054377980       13.77721036005348
C            2.53834036235794       19.65867051773658       12.10747392532158
H            3.49444751179420       19.30593378306991       11.70881483121434
H            1.88020969154925       19.85725347494897       11.25705179481932
C            1.94401177523029       18.60553017184307       13.01039184189397
C            0.77488833142509       17.93719342613659       12.62294605659334
C            0.26172705449652       16.92863437800844       13.43118759955106
H           -0.64411594442824       16.41471307661636       13.12705610773925
C            0.88547240254300       16.57024453922112       14.62086517830084
C            2.05033228770266       17.23097775381737       14.98938948544660
H            2.55566704832931       16.95593036073974       15.90883216025153
C            2.59171213377267       18.23599234133947       14.19516713500249
C            0.04968584726387       18.26914002916486       11.34230255011866
H            0.68071456678703       18.06874050272357       10.47425755241336
H           -0.24670884743958       19.31929272218463       11.31667571567683
H           -0.85014954846760       17.66102640671119       11.25066131311602
C            0.31846093536253       15.46999183993670       15.47420014654455
H           -0.77028951332513       15.45768977932241       15.41858554441210
H            0.61769883541507       15.59165368276883       16.51516472018310
H            0.68564581595967       14.50259453820358       15.12401624644111
C            3.86067408384724       18.90414596250960       14.64726841860193
H            4.53694554598361       19.07534325211810       13.81083780032805
H            4.37557368130885       18.29033801695840       15.38613824496949
H            3.63518933459332       19.87029927563079       15.10225663246013
C            4.70322219450507       23.93566316693914       12.97466872836018
H            4.14948681228747       24.73081986947752       12.46755793696055
H            5.48287354163215       23.59028663767217       12.28817469395591
C            5.35909684922565       24.46819989663441       14.23113709681084
C            5.83929523733573       23.62944838204904       15.24376400479629
C            6.53041907601688       24.17581741739412       16.32137470754217
H            6.90092514936098       23.51500556327152       17.09798204080317
C            6.76774676221483       25.54012967246555       16.41360505597786
C            6.29303012791919       26.36620895413379       15.40160473263809
H            6.47337037758229       27.43470474371771       15.45500721524569
C            5.59615755384112       25.84832477432137       14.31603135848811
C            5.64107222424842       22.13962698560347       15.22486319566314
H            4.60158167984926       21.89005947637134       15.44363998305609
H            6.27245455702544       21.65898944619615       15.97165509152869
H            5.89151239100700       21.72346424430221       14.25060395563471
C            7.50884759767001       26.11734996878281       17.58683561526153
H            8.15855902738560       26.93354086257808       17.26946683081773
H            8.11229137275084       25.35438733057170       18.07835574188325
H            6.79945081634484       26.51452703207257       18.31616909790284
C            5.13999358810794       26.80232451868341       13.24273373236153
H            5.62364178156310       26.56464759231134       12.29313389101520
H            5.40101190397340       27.82629888188449       13.50954166668562
H            4.05866545909902       26.75308062399023       13.09952522636795
C            4.41974790526711       22.16790837344193        7.82239009439671
C            3.09296432498398       23.74300984067861        6.92806441653678
C            2.36439706240579       24.89192558736411        6.64385626208007
H            2.33154334775406       25.72650848628592        7.33168170274085
C            1.68480310686013       24.91989749377776        5.43848071757086
H            1.10909355072606       25.79844415575657        5.17172686526789
C            1.72640940989044       23.83856784167994        4.55193858975870
H            1.17987254832588       23.90320058503453        3.61826162981086
C            2.45048135018642       22.69185301261525        4.83180212530882
H            2.47027660844915       21.86476304657550        4.13618830356087
C            3.14338932537571       22.65649680718789        6.03741391061362
C            4.19178706140482       24.23428523205041        9.13852754738962
H            4.85816937245134       25.02553768161610        8.79015197747971
H            4.76476577770425       23.61284050519105        9.83450891610661
C            3.00334595324925       24.82727854018791        9.86239120407769
C            1.97012687414601       24.00891567317144       10.33491201493971
C            0.96347365175019       24.54774563023055       11.12671533964966
H            0.17443537947288       23.90026762717649       11.49489919130316
C            0.96237701749212       25.89468610116312       11.46982236498760
C            1.96971746932195       26.70873967064664       10.96823464799827
H            1.97030468174412       27.76662584550622       11.20842016072248
C            2.98544203363591       26.19595070345927       10.16563197515279
C            1.90247986537374       22.54758557298446        9.98925668952327
H            1.59068985431287       22.42815874064351        8.95056143872169
H            1.17515279244951       22.03927474656725       10.62200653497587
H            2.87294039698764       22.06761956639543       10.11378605476293
C           -0.11917128831755       26.44963416959951       12.35375075150774
H           -1.05587179538484       26.52507576116749       11.79780093672321
H            0.14526744116430       27.44122322038606       12.71991891705551
H           -0.28697500548533       25.79117391611779       13.20748373145548
C            4.03082615345274       27.14810392590845        9.64523116039811
H            4.03935604174261       27.15161946476553        8.55383905698283
H            5.02757657072040       26.86986653506473        9.99126292395571
H            3.82274127808134       28.16188767096657        9.98664856198100
C            4.31613901520746       20.41291651078190        6.07998856683825
H            4.81152851128152       19.85300983208482        6.87710280870052
H            5.04268184499816       20.55537908265369        5.27565344631565
C            3.07728407278331       19.69702403066973        5.59641528961849
C            2.92159297596080       19.35463473643746        4.24669527739956
C            1.69782092206681       18.86493859354625        3.80260257077597
H            1.57494705279976       18.61692262718087        2.75366636615662
C            0.62404370592842       18.70851802948533        4.67307223437191
C            0.82427954136432       18.94847838241803        6.02714626430032
H            0.01828838033026       18.76854474326317        6.73029725680345
C            2.04627272855405       19.41336651309208        6.50015307983057
C            2.25420636518466       19.54268588688283        7.98396150203637
H            3.02172808486295       18.83543881639202        8.31109882067065
H            1.33463855544745       19.32000511637336        8.52450612775858
H            2.58843938812827       20.54039151389407        8.25994550297093
C           -0.71262567188253       18.26097019803127        4.14986422017790
H           -1.42661131330536       18.12935856662629        4.96222282307912
H           -0.61673059627576       17.31728209371958        3.61057843911249
H           -1.11000329763339       19.00423877224663        3.45619565963464
C            4.05623755506921       19.46814136442059        3.26370640398686
H            3.78909804154074       18.99451539832299        2.31915895030614
H            4.94891922529199       18.97718321183766        3.65593518582923
H            4.30328656757440       20.51021660782722        3.06090393245754
C            7.86311026684611       21.88192673218631        4.64337837536699
C            8.33192199803100       23.76578799423565        3.49106815711671
C            8.41699294343647       25.06852158308843        3.01100117961207
H            7.77985615800160       25.85579322728848        3.39137758331027
C            9.36148712101902       25.31791318565661        2.02949029715189
H            9.46360083539851       26.32064251586008        1.63096094073651
C           10.19566919016339       24.30294074203832        1.55078827608972
H           10.93233953143049       24.54092839351000        0.79206306328239
C           10.11342251695640       23.00497945773825        2.02576797193058
H           10.78080543772488       22.24268118770137        1.65074819740709
C            9.16002538655199       22.73743408435429        3.00410721614723
C            6.59108670232933       23.88866005937397        5.30157331759819
H            7.14713470096456       24.40339895097514        6.09124481724096
H            5.98234196643170       23.11864094246100        5.78468858030589
C            5.70365604322393       24.87051181661175        4.57346608883224
C            5.02004201495762       24.50419555807592        3.41000609036357
C            4.17117357318822       25.41606926691773        2.79045071907484
H            3.64666876266000       25.12008394993647        1.88801980295289
C            3.97425445506545       26.68706885609906        3.31401197159434
C            4.64734069273917       27.03993133868982        4.47830017448544
H            4.49793910624294       28.02652885579722        4.90426849573648
C            5.50526336191909       26.14931859873316        5.11276605977839
C            5.17920643127445       23.14199112649531        2.79295504229388
H            4.31116666645801       22.89704712925700        2.18104976074176
H            5.29948795915316       22.37624509952065        3.55786571330490
H            6.06250026090093       23.12130358378002        2.15173487353963
C            3.05950713786501       27.66778720748848        2.63468894578526
H            3.64167462248358       28.34180471147792        2.00245581476335
H            2.52583590021806       28.27111196692213        3.36957142108956
H            2.33378862033210       27.15220902719471        2.00588935025679
C            6.19214372951622       26.59074995713481        6.37742584267978
H            5.89543592212496       25.96410348961446        7.21964304665023
H            5.93498146907831       27.62325706871719        6.61311782562540
H            7.27571169806272       26.52603022378667        6.27552488207679
C            9.36893404519228       20.26441528988800        3.57216983508687
H            8.60337031068692       19.56615669296975        3.93012209934764
H           10.23209130931331       20.17559861272850        4.23515045801347
C            9.75397185516850       19.97578799594446        2.14413911155508
C           11.09522323584854       19.76820089286362        1.79658550444128
C           11.44091858704857       19.62815636817529        0.45696903562971
H           12.48260852577573       19.48482346219776        0.18902958620637
C           10.48039117422386       19.70212701907948       -0.54679503327465
C            9.14698350798380       19.85009571047217       -0.18723356649618
H            8.38239470031084       19.88164446022776       -0.95626368398137
C            8.77348705580882       19.97117393333113        1.14723999618647
C           12.18389037809261       19.71832548666466        2.83422812930544
H           13.14405692180969       19.50590063628652        2.36538175000315
H           11.98424878527555       18.93991561170246        3.57274940255280
H           12.26576107002905       20.67008127740954        3.36317411055018
C           10.89644741361417       19.63076479324355       -1.99038971245201
H           10.03026172348681       19.66414032555015       -2.65046904210713
H           11.45110827450111       18.71124607122819       -2.18465444072880
H           11.54881968495972       20.47182410992434       -2.23290812525910
C            7.31693063743742       20.11644261662038        1.49439127127222
H            7.10120052268113       21.13582755633083        1.81769650888703
H            7.04586566648029       19.44350669075284        2.30913215099161
H            6.69046746556056       19.88865530435974        0.63222795347168
C           10.48867863176348       14.20156116368344        4.36909431945501
C            9.44086576676547       13.30551305011756        2.59856941778343
C            8.62218713466875       13.01385976641035        1.51233938830008
H            7.89665934360237       13.72384081208119        1.13948762990412
C            8.76921260885595       11.76751283953570        0.92930585214844
H            8.14809347357014       11.50313970936158        0.08147148282388
C            9.69069781677212       10.83242529849761        1.41402210730133
H            9.76247123210772        9.86501930851853        0.93084787718776
C           10.50222355896623       11.10953185508292        2.50004545960780
H           11.20414394284868       10.37937964535520        2.88008065701912
C           10.36818567135033       12.36531795224522        3.08425625206143
C            8.79759054464988       15.65335924639292        3.28425772618645
H            9.29005847683537       16.39654007762737        3.91936512440513
H            7.79607930573632       15.48782362108330        3.68982076592811
C            8.72898592550827       16.11582265970619        1.84550822886407
C            7.49496126722185       16.38443442386404        1.23691926664558
C            7.44885087720800       16.66912923189020       -0.12305339158149
H            6.48887028946127       16.85876277563096       -0.59156437177756
C            8.60404673417310       16.69513662177290       -0.89683042811005
C            9.82805029802572       16.51979833056991       -0.26598198453575
H           10.74560183214534       16.58806897116849       -0.84037509254384
C            9.90283969793726       16.25484583527819        1.09766417598012
C            6.20064933725501       16.37531622231130        2.00502698469247
H            5.41307227565622       16.85369768843451        1.42270254568895
H            6.29756965045374       16.90644323264164        2.95296673273181
H            5.88804817772177       15.35205312067778        2.21470138413176
C            8.51261614300253       16.92353443959255       -2.37969028887232
H            9.50153597481941       16.93308023605003       -2.83659844086630
H            8.01937415106371       17.87391142834859       -2.58995545528720
H            7.92293353596314       16.13119270078610       -2.84436401325140
C           11.26206690970245       16.11978127051438        1.72719970645071
H           11.56733745028345       15.07326559098532        1.74584859791545
H           11.26215025511773       16.49260561109510        2.75112293298742
H           12.00085801286117       16.67902437283866        1.15304119179799
C           11.98407399674496       12.38107546792837        5.04350737428344
H           11.44740941871913       11.81847848925317        5.81049514954682
H           12.46938203700350       13.22225874815707        5.55027428546412
C           13.01257643294752       11.50076917041491        4.37425564222201
C           13.32443579684456       10.25934398956277        4.94777825795768
C           14.29073759125515        9.45268376019183        4.35781787040821
H           14.52350975103269        8.49218072831137        4.80522740517685
C           14.97396733431563        9.85825999023710        3.21671268063126
C           14.68403732246214       11.10419791395454        2.67654203804987
H           15.22347144078410       11.44850451012663        1.80056863019236
C           13.72101783442147       11.93173306915298        3.24683732245956