457
 energy: -722.895559709045 gnorm: 0.000615742552 xtb: 6.5.1 (579679a)
Au          15.49899647581170       -0.47161548084186        8.90028643477604
Au          17.97993661470942        1.05032851496678        8.08121685834443
Au          15.73722533622136        0.87064198241767        6.15015256717563
Au          13.18920349742730        1.05630760595308        7.67378591051633
Au          13.84972229047403        1.43678596047215       10.54906785146537
Au          16.83961680031612        1.41244497325605       10.80914760083830
Au          15.53325386879056        2.32469242541334        8.51126323944297
Au          17.92759001068094        3.72849021324571        9.40167454976156
Au          17.31610635686134        3.38678373999413        6.45730082133328
Au          14.23833032834359        3.36695584120185        6.13812944185834
Au          13.00494292055542        3.73898182107678        8.91366268851478
Au          15.29154451976934        3.95692626184813       10.90762958728037
Au          15.52653209650873        5.16076984842099        8.17261774735952
Au          17.99276977898157        6.72884284782910        8.86745618130650
Au          17.18141930561876        6.33341200866948        5.94801823505545
Au          14.20003749738720        6.42856803537502        5.70053656189128
Au          13.05556239634086        6.85372691101382        8.49124595489048
Au          15.34664321954952        7.05844882114492       10.47416571267094
Au          15.61882012676052        7.97997695350255        7.72566617226546
Au          18.11028043787919        8.95072525843623        6.93625046775941
Au          15.81125484644656        8.79026723286787        5.05597881544391
Au          13.34408114720872        9.11209018657341        6.61461132906962
Au          14.05890526537774        9.47264995470989        9.47101996599736
Au          17.05342657085242        9.36835211114176        9.69929862565156
Au          15.79464915038333       10.77917882054931        7.37196309033102
Cl          15.46661503417845       -2.88639777012038        9.36638811731707
Cl          16.02533920951943       13.21750308135479        7.21128703960355
S           19.58725752390507        5.38194578300291       10.22155015055768
S           18.73208488267907        4.71723085575703        4.88853988720642
S           12.82661889743061        4.70460978412444        4.58611602505218
S           11.25243781935180        5.43876863858253        9.42604662506955
S           15.46060956435084        5.76269644446756       12.59734416539178
P           20.04446017971549       -0.14610788572362        7.85732811006993
P           16.14208415317348       -0.48269734632639        4.21604626046098
P           11.33747066919156       -0.24887043148743        6.87623868747337
P           12.38401497767168        0.71967046607039       12.30372769042859
P           17.89164721006174        0.61719909964343       12.81155861036906
P           20.29330891974647        9.70041775780769        6.30454504223051
P           16.27503088472584        9.62277577437244        2.85927490644986
P           11.44915850886249       10.17415879550906        5.62242170595743
P           12.70171287877561       10.82661060803788       10.89673729627690
P           18.25337408198997       10.56268736360152       11.40651394140766
C           21.49419425249531        0.90565543455523        8.18186884743803
C           21.29192097546567        2.17602914871778        8.72137159432457
C           22.35314930494431        3.04167407903649        8.93340691169879
C           23.64355404339025        2.64163661131891        8.61396856303223
C           23.86096076838940        1.37990674522675        8.07507120264161
C           22.79697320990299        0.51919711705513        7.85192131815061
C           20.11233884614285       -1.52975518507763        9.02764316916305
C           21.20662871562377       -1.82752998041704        9.84067050203159
C           21.14105257874580       -2.88713766196292       10.73361830958246
C           19.98780899024460       -3.65331899524235       10.83291337875047
C           18.89422836528612       -3.36584015008969       10.02685233782792
C           18.95801081468423       -2.31181760841366        9.13231830626325
C           20.46671405543841       -0.88479111873229        6.24733733200615
C           21.07374722434272       -2.13646846096016        6.12630630153419
C           21.45037126957188       -2.61295926149083        4.87955276690580
C           21.22422373770821       -1.85058046238449        3.74152602915962
C           20.60338960691569       -0.61328332016012        3.85061370413838
C           20.22373608816436       -0.13490314499162        5.09448937393643
C           17.21973074224431        0.29766127823023        2.97361479071938
C           17.42378141927924       -0.23518017485173        1.69664979193261
C           18.27251805766568        0.39948118819020        0.80177352665408
C           18.91177009868656        1.58194164272179        1.15475775805640
C           18.69137527657234        2.13602779627509        2.40766094957913
C           17.85541311855200        1.49416852567924        3.30564951784525
C           16.92368780793633       -2.05706884402197        4.67140779580236
C           16.52091719503009       -2.62229480739043        5.88481532154591
C           17.08289512044185       -3.80042402353565        6.34482797210752
C           18.06084928277356       -4.43701558447747        5.59281365206395
C           18.46914778081265       -3.88778355948370        4.38521845718684
C           17.91212647961785       -2.70305619948112        3.92675508704740
C           14.66669996970795       -0.92775759883414        3.24953540058124
C           14.50834539711100       -2.16416720229376        2.62190618064499
C           13.37752466401491       -2.41987382227408        1.86032383140987
C           12.39366867646235       -1.45034012325759        1.72044857501670
C           12.53755612925730       -0.22143323803038        2.35140848328004
C           13.66464372742057        0.03666450355386        3.11395169496411
C           10.10056526431683       -0.68202508883783        8.13960487841418
C           10.31321087565486       -1.75134649848081        9.01335302314968
C            9.41843094200992       -2.01335959741068       10.03837586985637
C            8.29156209397869       -1.21944348298727       10.20073644938052
C            8.06991067311180       -0.15476433427297        9.33809882456378
C            8.97540530408409        0.12559480104799        8.32705387029213
C           10.38206395248214        0.48788711090136        5.52007432622237
C            9.14984698313456       -0.02577440278704        5.09984418559594
C            8.47301525554042        0.55866681717263        4.04094963589261
C            9.00965702555601        1.66057205065975        3.38742151696342
C           10.22813481278790        2.18154909216957        3.79956193399506
C           10.90632959389059        1.59805496248668        4.85810782754757
C           11.93309601167585       -1.84590245875046        6.24606342376012
C           11.51134251359272       -2.41275164724572        5.04228404914476
C           12.02350224982560       -3.63353481668193        4.62881548755432
C           12.95772979817821       -4.30501938026796        5.40556890360055
C           13.38939215990395       -3.74643203358085        6.60055527048694
C           12.88891905345077       -2.52193250229119        7.00943217119946
C           12.39559873662397       -1.07687598094975       12.55764988515707
C           12.06652562169746       -1.69079901720082       13.76989174027700
C           12.09736959376923       -3.07229995033042       13.88154032314496
C           12.46016236941254       -3.85781613321034       12.79474973545317
C           12.79747504876175       -3.25809433598867       11.58914847378545
C           12.76307036372461       -1.87853766545729       11.47445795295489
C           12.79720445279977        1.44707744483315       13.91615171475722
C           12.17430718151653        2.61721363757192       14.35804795080939
C           12.56475692909719        3.21753758466453       15.54560301202034
C           13.58679736198638        2.66273541034077       16.30458272183389
C           14.22198958772275        1.50802060905519       15.86687132740342
C           13.83866786247580        0.90896807555549       14.67731535429290
C           10.63492817624473        1.18742033531637       12.09097257444051
C            9.65251549880903        0.78555492770220       13.00126407983133
C            8.34500112245083        1.22104942291509       12.86043500525147
C            7.99706104700532        2.06480963747603       11.81267668915896
C            8.96069713241516        2.45494409680522       10.89295167358667
C           10.26830335108148        2.01574277859188       11.03088157641795
C           17.83061001910286        1.83448516160435       14.16347770862412
C           18.84793434264677        1.97337421974047       15.11167398613585
C           18.77937081532186        2.96864878960177       16.07442422176383
C           17.70121361614503        3.84337992588791       16.10242887030332
C           16.68213499403403        3.71095383738416       15.16877285552935
C           16.74678454083005        2.71365692507803       14.21000463698387
C           17.07467808307356       -0.87470169600759       13.43978723343366
C           16.74303470674219       -1.07430477196232       14.78198398063479
C           16.05412757882083       -2.21634702145963       15.16510920919700
C           15.69028841025478       -3.16613358724549       14.21966116591062
C           16.02273723031960       -2.97913001401284       12.88465704900956
C           16.70736629303012       -1.84025350379932       12.49867917044028
C           19.66018253924081        0.20110874773309       12.72315024292480
C           20.22961180857821       -0.82981626000426       13.47405880400792
C           21.59900968544333       -1.04596806768656       13.43819326962322
C           22.41409457326302       -0.24077157662861       12.65377280374204
C           21.85396874492708        0.77280011239632       11.88736272037852
C           20.48569817050900        0.98923083062682       11.91853540254799
C           20.79318484338673        9.70341949528452        4.55542332561700
C           20.43004137382193        8.60287493396964        3.77298553190227
C           20.82240059342976        8.52033024528819        2.44737363509718
C           21.56667205851084        9.54444815211574        1.87692913606435
C           21.91248809913780       10.65217265518118        2.63813133508208
C           21.52769261458611       10.73478304934187        3.96817318108421
C           20.64351724118562       11.36818337188122        6.92403094469231
C           19.55805664680731       12.20093418358605        7.20317740393926
C           19.75165201111911       13.48989674956879        7.67222711506196
C           21.04181806169654       13.96599700904305        7.86202480527160
C           22.13144638866518       13.14877008449231        7.58488903684764
C           21.93920628126927       11.85486033543189        7.12326123146745
C           21.49822713892869        8.58956614077500        7.09708380422134
C           21.28959858555984        8.27014645844923        8.44235433248588
C           22.09168338351141        7.34254178728019        9.08482020434469
C           23.12014366393343        6.71755707134739        8.39192790008789
C           23.33715267534464        7.02341600220611        7.05573719782640
C           22.53092109169666        7.94948939063251        6.40893116868145
C           17.11807715846530        8.43493752286725        1.77417609401270
C           17.30759267872820        8.64465815076428        0.40393944477949
C           17.99084072583874        7.70889971841104       -0.35832796325907
C           18.48724542239404        6.55005214085619        0.22593938138076
C           18.29113004046153        6.32325319261462        1.58168866477797
C           17.61289167441216        7.26081048612542        2.34311186911248
C           14.81885192843533       10.18901931652359        1.92975510878234
C           14.26982072345129       11.44926036111697        2.18206410286451
C           13.08913475528497       11.83702644152727        1.56946527013637
C           12.43759107949369       10.97387662833125        0.69906688605806
C           12.97131400972613        9.71759834293656        0.44586868047572
C           14.14632927569579        9.32071128445157        1.06527690285422
C           17.36126405535780       11.07481117822320        2.97736694451829
C           17.13108280206325       11.95707892882260        4.03693671189960
C           17.92332404549388       13.07772659319574        4.21729531313768
C           18.96703253227440       13.33203571954983        3.33852193663309
C           19.20861883485481       12.46159323290242        2.28415777005422
C           18.41722175252822       11.33705093007861        2.10320381145460
C           10.79174248125754        9.31153941675701        4.16151880277379
C            9.46829167008510        9.45053744456279        3.73373654082910
C            9.02194857874892        8.77933975244512        2.60621060372355
C            9.88250964752184        7.95080830167552        1.89738749516939
C           11.19555157295643        7.79637110703045        2.32077773426844
C           11.64689236048996        8.47650711022983        3.44019122902910
C           11.76344270564103       11.87898805248350        5.07946570911867
C           13.01518251747325       12.43781751118985        5.33875030712044
C           13.31724264926967       13.73085136466159        4.94384277571832
C           12.36462221847649       14.48390214507759        4.27227786369621
C           11.11429884027805       13.93908105522803        4.00323250576880
C           10.81077923577841       12.64714988359422        4.40273276681946
C           10.04420377916412       10.26474225027796        6.76505032845016
C            9.28525611063143        9.11328191644458        7.00074651743855
C            8.28861041658318        9.11419157225802        7.96252284631034
C            8.04714069440603       10.25764146862842        8.71394636789059
C            8.80344747269075       11.40048782180461        8.49567866370508
C            9.79996443287165       11.40577762931230        7.53161616206868
C           12.17727820575994       12.39275975129043       10.14253703727593
C           12.96903247315844       12.92016733323261        9.12033805394498
C           12.62551122673371       14.10764077013785        8.49615798250220
C           11.47426106671288       14.78074118081760        8.88057157695265
C           10.67738956925417       14.26613634895828        9.89593643955938
C           11.02336899198504       13.08071683339614       10.52665479833924
C           13.55455928345126       11.29320293016096       12.42964397775573
C           13.76805424779993       10.31146566779331       13.40279427960424
C           14.49000196392375       10.60317214523301       14.54717863128736
C           15.03020727551323       11.87078313991417       14.72493249473596
C           14.84552516912052       12.84429910184984       13.75365912894597
C           14.11186507324261       12.55987277275459       12.61180590214263
C           11.18483656430241        9.99717287504529       11.45534334885851
C           10.67345770048177        8.95804555694552       10.67613340045621
C            9.53224718208039        8.27482835875504       11.06208144214395
C            8.87227050360754        8.63462553272408       12.22851902632804
C            9.36814790238734        9.66860933210724       13.01178939418625
C           10.51992808045289       10.34227838589596       12.63594538708644
C           17.86477188033718       10.01922209296609       13.10135690535520
C           17.32845487028915        8.74356371139619       13.27514456663248
C           17.10086263278628        8.22985744263250       14.54135241938680
C           17.40431515653583        8.99349820466593       15.65958784746576
C           17.92538937936281       10.27203267453593       15.50088778616089
C           18.15536431903911       10.78447726275270       14.23322099320191
C           20.06231325486569       10.37201457344461       11.35881469276744
C           20.83174004991203       11.17423448950281       10.51111073405862
C           22.20348946195178       10.99389304851299       10.42754993594136
C           22.82555603452980        9.99888845509165       11.16872080310057
C           22.06796535191916        9.18326864440073       11.99817311655680
C           20.69757435910834        9.36652460056700       12.09298842593435
C           17.96479557889860       12.35155985106421       11.33351307055961
C           16.83602982981231       12.80134331222608       10.64495097279430
C           16.57824592687994       14.15466798646029       10.50542416052173
C           17.44350679444924       15.08258984896882       11.06757910164281
C           18.56526672611510       14.65023671374754       11.76327959968910
C           18.83215194952444       13.29619707748766       11.89245184501377
C           13.46768504307237        4.44030624365876        2.92661333211190
C           14.98973050986845        4.41094143597349        2.82488215036160
C            9.96367073180507        5.31778414017639        8.17356930247631
C           10.33802113150105        4.43814833356334        6.98583641505742
C           13.85370762093059        5.87938019324311       13.40515141238014
C           12.70555051713241        6.23729159334789       12.46770199034826
H           20.28690401818279        2.49734997255549        8.96807245230708
H           22.16236956233349        4.03023028899950        9.33520880980452
H           24.47714038538790        3.31482234391732        8.77664838487558
H           24.86601944022865        1.06641957399577        7.81770548074217
H           22.97643102987216       -0.45482912198365        7.41091313809808
H           22.10743381752677       -1.22735006462258        9.78183326708174
H           21.99685149883068       -3.11006395835442       11.36043959386127
H           19.94122939801438       -4.47289712510710       11.54035965897786
H           17.98627207710802       -3.95330133894595       10.09436521512775
H           18.10186181596592       -2.08778835896762        8.50616734143799
H           21.25464905989496       -2.73769816002060        7.00977850730261
H           21.92838614852181       -3.58225359929465        4.79859868588611
H           21.52706733155685       -2.22131583797710        2.76938568862529
H           20.42252307391646       -0.01422509491071        2.96581857019604
H           19.74100222506722        0.83321008847960        5.17641125836908
H           16.90779272269643       -1.14047174096380        1.39751055583723
H           18.43138300309903       -0.02998190633628       -0.18058828099677
H           19.57121885408662        2.07578137540297        0.45066149833034
H           19.16579234541084        3.06779243819409        2.69578249107271
H           17.68648683568840        1.93395699686347        4.28121000489124
H           15.75819516819485       -2.12774998098286        6.47527268903332
H           16.75803410747129       -4.21177856777230        7.29318635300923
H           18.50853900842226       -5.35717487893466        5.94933477757291
H           19.23459618138322       -4.37948360520635        3.79590632681129
H           18.25882742463772       -2.27646772924855        2.99291407822641
H           15.26911538802599       -2.92842117689280        2.73280498372952
H           13.26614984702761       -3.38124219796610        1.37246377513550
H           11.51222158515652       -1.65322663642394        1.12365290537728
H           11.76932396725002        0.53693199600633        2.25214039584192
H           13.77245769131576        0.99433370299141        3.61338402458235
H           11.17863077786883       -2.39102351169784        8.88803330613629
H            9.60195160517123       -2.84462833425573       10.70944086920421
H            7.58839280658453       -1.42793796192393       10.99848512897324
H            7.19080107530913        0.46788679882138        9.45711616002562
H            8.80285456353724        0.97361716411550        7.67347547920253
H            8.71860294270956       -0.88004945029191        5.60915909899146
H            7.51873663368655        0.15287351323089        3.72578899827624
H            8.47338176724120        2.11886121896409        2.56484091700378
H           10.64656157447351        3.05416812542866        3.31130855070663
H           11.85388678717094        2.01432083844135        5.18010463090343
H           10.78599816662663       -1.89987011697488        4.42121653753419
H           11.68808394678334       -4.06157745746038        3.69108303314732
H           13.35217081201423       -5.25918517612843        5.07649764298916
H           14.11959511346222       -4.25498092485018        7.21865689230146
H           13.25193213185455       -2.08103233337218        7.92977340185379
H           11.79616173277162       -1.08811982755473       14.62944239202011
H           11.84092215994663       -3.53764287279155       14.82631640349064
H           12.48773032524499       -4.93674405810084       12.89152864214289
H           13.10433493492446       -3.85691591810862       10.73994188609267
H           13.03680849667683       -1.41277659564952       10.53453860352907
H           11.37400876976971        3.05895286750025       13.77526470359254
H           12.06234125362568        4.11760507569856       15.88146062457849
H           13.88863669528372        3.12932211523284       17.23488863109824
H           15.02394035227400        1.07344353515406       16.45255475668126
H           14.34588803144610        0.01237971544270       14.33869321081533
H            9.91498148439664        0.13437420481020       13.82711536296294
H            7.59425350962460        0.90610290408957       13.57576666061968
H            6.97520988602342        2.41001597464125       11.70895025142725
H            8.69437849362066        3.10238857700436       10.06551301092068
H           11.01554549679648        2.32512114321011       10.30933839601447
H           19.70095679585976        1.30515683837580       15.09263374435805
H           19.57723846926135        3.06644408483416       16.80138805081306
H           17.65618393996598        4.62850249100246       16.84803653198740
H           15.84016050959290        4.39310328489517       15.17701863209656
H           15.95014566491899        2.61786730730429       13.48060601533665
H           17.02240626595195       -0.33548568151988       15.52474342196357
H           15.79755945929382       -2.36131729139989       16.20825441958012
H           15.14203619365053       -4.05010887026265       14.52389420232346
H           15.73720623033150       -3.70814897054866       12.13556579302262
H           16.95594712843095       -1.69253530838161       11.45403181623969
H           19.59915487030128       -1.46096750395737       14.08988687133138
H           22.03162200822481       -1.84318543734340       14.03136135682198
H           23.48479313603843       -0.40643417468133       12.63428042905123
H           22.48452652922334        1.39741101804313       11.26542647651319
H           20.04859150557261        1.77979989559650       11.31784361835742
H           19.83786368341560        7.80662852700447        4.21165051868391
H           20.54572177620523        7.65449149820318        1.85728389224999
H           21.87317785127754        9.47943811949956        0.83961727733199
H           22.48977787367141       11.45647432335102        2.19718702733604
H           21.80261829121148       11.60605014341788        4.55094513782414
H           18.54959958823557       11.83556645198545        7.05174330122374
H           18.89149197972158       14.11413553211455        7.88515394736018
H           21.20117357399886       14.97361797920080        8.22763845704291
H           23.13907516517540       13.52105108532293        7.72972105213803
H           22.79321617912344       11.21680343137822        6.92507686777711
H           20.48580514209888        8.75482991619514        8.98597703667365
H           21.90088559844907        7.09309029289289       10.12240378480716
H           23.75092399381298        5.99306233520132        8.89375826141977
H           24.13669106536059        6.53651748403859        6.50924568131860
H           22.70722917010342        8.17368472957209        5.36355968939781
H           16.91160554729090        9.53702972140518       -0.06708652776715
H           18.13438801146180        7.88482031626761       -1.41811123536728
H           19.01530148312640        5.82038260357057       -0.37656619935458
H           18.65704003858380        5.41781427117646        2.05323821035055
H           17.46292041421279        7.07733235772589        3.40020487819900
H           14.76972799716948       12.13233130550216        2.85954920046967
H           12.67595908859065       12.81816955580970        1.77426043040897
H           11.51459090039377       11.27859515001610        0.22001503855302
H           12.46799482077843        9.03950374825577       -0.23364370746865
H           14.54683315637908        8.33141304723608        0.87260794851772
H           16.32683743749926       11.75767192975790        4.73510635715761
H           17.72235347740538       13.74219861057744        5.04938808013795
H           19.59518172311285       14.20418678011386        3.47672428361099
H           20.02414986270102       12.65461300659206        1.59666064318087
H           18.63025680665055       10.65991615934911        1.28407937018666
H            8.78327420653314       10.08099964680648        4.28882157991052
H            7.99510960961157        8.90052679391049        2.28147536278494
H            9.53071362411166        7.42713914218476        1.01638037200390
H           11.87153445138932        7.14650838363985        1.77677937507463
H           12.67645741057449        8.35901116135549        3.76062184040656
H           13.76211395190133       11.85337139479328        5.86195999644931
H           14.29517147781182       14.14084681052800        5.16768192185805
H           12.59302282951673       15.49553825281160        3.95827716987176
H           10.36828973691300       14.52591286717671        3.47982918932789
H            9.83220815866911       12.23295539380085        4.18817428335981
H            9.47533598105921        8.21649078595255        6.42007756491771
H            7.69988309280775        8.21911497900916        8.12800242505177
H            7.27206843572798       10.25531016643854        9.47128578873744
H            8.62018530937498       12.29422440526938        9.08085224105421
H           10.38960733051731       12.30123493418978        7.36902212741451
H           13.86370816027465       12.39412087163692        8.81017679806691
H           13.25900519587788       14.49829193044066        7.70850912833693
H           11.19622098270588       15.70647052678959        8.39059174493153
H            9.77983781863941       14.79186495168621       10.20078132214189
H           10.39381778771735       12.68695497535172       11.31652465687769
H           13.35793157417079        9.31702140945108       13.26133331351641
H           14.63897142738061        9.83694636070183       15.29945272074234
H           15.59907584244706       12.09631095123459       15.61923739568874
H           15.27261334038969       13.83191941345232       13.88445945866833
H           13.96712875317958       13.32704912750746       11.85990842493193
H           11.18140814662567        8.67717296705538        9.76020425057915
H            9.16752281586735        7.45437831912010       10.45468100774060
H            7.98050685836107        8.10071676985519       12.53517864309071
H            8.86010468888538        9.94598138434073       13.92809304277961
H           10.91163950684904       11.13260537272365       13.26597795919496
H           17.08467364522488        8.14535245179860       12.40560757537519
H           16.68813515785541        7.23187822376296       14.64358772920611
H           17.23394387794534        8.59610575028466       16.65328545298667
H           18.15994149084300       10.87330159468325       16.37165710885301
H           18.56358063187050       11.78249596425349       14.12405861681644
H           20.35281822874024       11.94944353253984        9.92363063538525
H           22.78840427726136       11.63386905800302        9.77749944282019
H           23.89768832955118        9.85816082234670       11.09883389234004
H           22.54515781357218        8.40325291939668       12.58059433311638
H           20.11924945067355        8.72950856916037       12.75279757062742
H           16.15990036574042       12.07973917117239       10.20044964150235
H           15.71259475878151       14.47905152244870        9.94019843009045
H           17.24986858169939       16.14297848649517       10.95682542255876
H           19.24522614653363       15.37265945499121       12.19993077037073
H           19.72458366561909       12.97226147485446       12.41566224671936
H           13.06246829337308        3.48965539398780        2.57529837565886
H           13.07349923138350        5.23625825017794        2.29234982072362
H           15.39539290363288        5.38012401380804        3.13176008738747
H           15.38411779301904        3.64980337044081        3.50565250809307
H            9.72257789041911        6.32346330978635        7.82805401477692