235
 energy: -371.074100829323 gnorm: 0.000598892483 xtb: 6.5.1 (579679a)
Au           2.88571460251140       10.89763562161650       18.62516050200572
Au          -1.21505253247100       12.12697997739737       15.99527321548579
Au           4.25156828802157       11.85802975494582       16.38228444818522
Au           1.50782959137824       14.16267490702663       14.48285669037404
Au          -0.05768133536910       10.27107816994347       17.88749661410705
S            7.64634813077734       10.52012700105807       18.82702603787343
S           -0.86719615133300       14.14370055129786       14.57300990228238
S            3.72010278632946       14.16083469681723       13.55361683224707
C            6.88150972644433       10.72317395810638       20.45824568688308
H            7.21580354694840       11.71095708128265       22.33125654686739
H            6.84683207353644        9.71875577675531       20.88191684943844
C            6.79577306097975        8.95381776263633       14.30219252778748
H            6.17341992914594        9.14345345521689       13.43258296802003
H            6.87054095612679        9.86137482521274       14.89450360970581
C            5.20861793204880       14.16535894166285       19.83791628207286
H            5.59300300166630       13.54758714699036       19.03085639495039
H            7.51233210354735       11.77307436816437       18.43227148275741
H            4.77517470070049       13.53067881689332       20.60681121392937
C           -1.43710252163091       13.64288579343764       12.93716383438700
H           -2.50786201932391       13.45119565620401       13.02365948145967
H           -1.28943873308081       14.49168945609243       12.26786482117685
C           -0.73334335401960       12.41271042227823       12.38067528634368
H           -0.84282841622776       11.58490474230468       13.08841247386888
H            0.33729491227404       12.61984924771364       12.28205162273414
C           -1.30799317979968       12.00783790116956       11.02571201357267
H           -2.36298585021013       11.74862690266186       11.12156838050512
H           -0.77165098542461       11.14185831405269       10.63691749902701
H           -1.21294683153991       12.82420074643824       10.30898929138618
C            4.90194658977209       14.78661378693658       14.76507584760955
H            4.69647426353199       15.85421422537219       14.85139792362681
H            4.74347874645317       14.32745588585789       15.74414462697298
C            6.34628301022790       14.59341770728083       14.31406608953832
H            6.43628184568460       14.89016029356889       13.26501048468524
H            6.97359767579067       15.26855373138785       14.90657017497336
C            6.85572655028597       13.16810872545291       14.48877917666232
H            6.29312765091982       12.47550335962153       13.86288188365212
H            6.75495345684534       12.85187062104207       15.52877696110434
H            7.90718312422893       13.10518870978668       14.20836658324110
Au          -0.79026468543347       12.97502657653959       18.74945268144196
Au           0.57436676883933        8.69438832570826       15.44524514422715
Au          -3.88904585258173       13.25579031515392       16.61384707018570
Au          -3.21933724712728       10.37865088413408       14.66852033244271
S           -2.82911371226312       14.52600530052220       18.28598284931136
S           -1.69213182356457        8.63606888284230       14.38541734674242
S           -4.86136039861470       12.06685349697837       14.82353068510561
C           -2.18209086405644       15.89836595441836       17.29900732019030
H           -1.53951593157671       16.48622058107483       17.95658225629428
H           -1.57212223029485       15.52483176967137       16.47462102686322
C           -3.30613681362402       16.76651795001936       16.75118045753039
H           -2.86644543876636       17.55555694102566       16.13137421703971
H           -3.94624171767801       16.15290996970022       16.10888760002031
C           -4.14593466410806       17.39090765436731       17.86196891310637
H           -4.97721032944409       17.95437818659614       17.43835027240467
H           -4.54425698343354       16.61134483228043       18.51294484525478
H           -3.53829628639725       18.06732767647733       18.46503693871905
C           -1.50257011489905        8.36318772848155       12.61283626978344
H           -0.99130581712488        9.21085297076164       12.15303063544341
H           -0.87198179653607        7.47984053495275       12.49879171415206
C           -2.85578458484864        8.13560775977024       11.95457160075820
H           -3.47692534960679        9.02575919229899       12.09792608845993
H           -3.35862522242788        7.29840983419722       12.44811997630664
C           -2.70963555312858        7.84675680501733       10.46214264829805
H           -2.24710833714015        8.69366125704577        9.95342597361784
H           -3.68883728819951        7.66868534935199       10.01767183300194
H           -2.08918725016641        6.96407870290366       10.30253955472561
C           -6.33011527521607       11.23068504150115       15.47549111359078
H           -6.56171127055419       10.42519009501187       14.77879162858873
H           -6.12500066221850       10.79289271663271       16.45550697360732
C           -7.51267335000073       12.19225659421090       15.55430801038027
H           -7.55291739663407       12.79121644502788       14.63955488418186
H           -8.42929160216328       11.59417265046994       15.60231273051893
C           -7.45797045569001       13.10957097012253       16.77127945260765
H           -6.57043953226889       13.74254231156483       16.73909233891013
H           -7.42906847818508       12.52315155539749       17.69025382211781
H           -8.33617873461652       13.75476732220725       16.79614300710496
Au          -1.91313281881033        7.88121645082891       18.40546538592243
Au           3.08460376713451        8.90748009867733       16.57559722324425
Au           0.20077662358160        5.78474189750567       16.03068453546615
Au           2.88442628045349        7.67501878895476       13.96188897775979
S           -1.92507957018171        5.77250593481918       17.09522636692464
S            3.58733575957703        9.56201942678184       12.74073111325166
S            2.23516665396768        5.58122850099728       14.79659442407080
C           -3.17923664070051        5.87441083865562       15.79918535203330
H           -4.14233028077456        6.00468763521913       16.29531006688310
H           -2.99193773334056        6.74702058952169       15.16990478182999
C           -3.18210355385078        4.61094115315757       14.94977686893670
H           -3.90581642371805        4.73873490430699       14.13713366150665
H           -2.19204521555725        4.48205491444356       14.49995754638697
C           -3.53858777990575        3.37096316710880       15.76633592917856
H           -3.49138958268668        2.47905514491845       15.14162484513406
H           -2.84025014722103        3.25559385280553       16.59649962578641
H           -4.54713676217748        3.45893074684883       16.17338832273010
C            2.29716194376079        9.71341707027077       11.48326392649014
H            1.36379363609416       10.05010958579896       11.93643233501112
H            2.63285419165359       10.47702788623326       10.78111261693826
C            2.08840389427440        8.38995813819696       10.76150213107859
H            1.67462973622178        7.66112063416538       11.46639684052318
H            3.05365370821302        8.00813207779736       10.41751622218017
C            1.14181223049600        8.55321679058551        9.57489400307220
H            0.18219753647102        8.95280349835637        9.90508432600481
H            0.97047092243870        7.58889933512538        9.09689881548636
H            1.56577358007632        9.23742042952829        8.83917642784427
C            3.49417021971566        5.14750841342479       16.02831117075792
H            4.38859529142070        5.73625766413795       15.83047854770772
H            3.13229655636415        5.39386390119267       17.02592710657207
C            3.82894855538094        3.66295120786764       15.93312736574754
H            4.16378499145646        3.43715482796013       14.91629898786857
H            4.66323071068981        3.46318811677262       16.61485300578262
C            2.64830218828310        2.76744473955089       16.29699770803135
H            1.83291957688539        2.90493613224012       15.58679636839791
H            2.28115023750821        3.01220991298952       17.29517629078041
H            2.95234335748822        1.72087767597101       16.28058372517726
Au          -2.88616212062120       10.65110426077955       17.67411285906270
Au           1.12296444771426        9.56206002295738       20.44969641980336
Au          -4.49985899877836        8.29437009955779       19.85385743941691
Au          -1.74449348896602        6.98879895921648       21.47294670823591
S           -5.17664080895295       10.19957650020180       18.64457824658991
S            0.53780597783988        7.44923014171659       21.85111570775060
S           -4.00499909887242        6.40534814271965       21.17343870297602
C           -5.25539648950892       11.50191900762579       19.90285423574836
H           -5.54811081504138       12.41387361749118       19.37957964917235
H           -4.27254030382707       11.66438893910770       20.34517068850124
C           -6.26010531160367       11.17088738298584       20.99778486970021
H           -6.22738845345077       11.96557030916557       21.75105527919059
H           -5.95988401509555       10.23622187524403       21.48309735209190
C           -7.67963509329413       11.03375540548310       20.45523845489043
H           -8.36246187233871       10.73855524941314       21.25180743771682
H           -7.70971080951636       10.27839577184164       19.66895899775041
H           -8.02090652910439       11.98207552017312       20.03765328462529
C            0.87651804774460        7.41743611801284       23.62604791290507
H            0.32713699571742        8.22195736346610       24.11692347925698
H            1.94512469673522        7.60456242749131       23.74565583144784
C            0.50196089792344        6.07143655404607       24.22835891582553
H           -0.56766641791855        5.89438920454900       24.07572706945641
H            1.04672526488647        5.27752192277201       23.70761690894802
C            0.82447425460618        6.02999459601036       25.72104492662270
H            0.27575904942346        6.80936393210864       26.25151505269241
H            0.54487540121710        5.06235264939544       26.13740125452609
H            1.89170167968536        6.18446464345143       25.88481220106407
C           -3.94622618785183        4.96470387640470       20.07375687200898
H           -3.38967171970270        4.19653048079315       20.61139059759986
H           -3.40997609037541        5.19118118972663       19.15021630997430
C           -5.35103663664886        4.45185458763025       19.77278149586905
H           -5.92324688916004        4.40576038029791       20.70419287608163
H           -5.25852171299568        3.43099142053687       19.38608088223955
C           -6.09798742735588        5.30158828483130       18.75066664346738
H           -6.22794106980819        6.32094878589067       19.11582596960206
H           -5.54871206265124        5.34098277169238       17.80944082540477
H           -7.08447132611834        4.87899676684645       18.56020915622851
Au           0.96042847144656        7.60550856902406       18.25826828801693
Au           1.37062389487387       12.46622856488357       20.45818361950691
Au           2.48284845567905        5.99826110480060       20.46817977792371
Au           3.66493371407705        9.69186084977578       21.93762408157447
S            1.28694017734041        4.95578152118347       18.71566749228847
S            3.27830151334011       12.00904596878760       22.10698697801392
S            3.98723778873791        7.32948482108445       21.84043800193765
C           -0.22466070817899        4.39581384532618       19.52885310676949
H           -0.85576836852841        3.96238648027406       18.75178643993255
H           -0.75504050994912        5.25273871111361       19.94966698768611
C            0.04397847389211        3.38067467959633       20.63047633941757
H           -0.90797584793804        3.14011280221524       21.11724672776329
H            0.69934420050869        3.83373581180516       21.38204215911428
C            0.68362591382645        2.10346674060694       20.09459979156367
H            0.87981274660930        1.40827245722387       20.91081161101046
H            1.62661636772131        2.33559533950198       19.59836327528273
H            0.02306773796139        1.61966402171695       19.37394274916613
C            2.74110475455035       12.32381463499162       23.80251373409304
H            1.76764229878645       11.86518551311685       23.98261950561857
H            2.63444143415405       13.40599130126637       23.89438206371038
C            3.76548354831510       11.80374092654088       24.80124304640486
H            3.85264612384908       10.71769750978877       24.68910865496186
H            4.74355171997089       12.23919442290744       24.57501748228175
C            3.36442532259499       12.14206854477637       26.23573617736969
H            2.40116243349929       11.69184493473403       26.47892369163401
H            4.11111684110773       11.76148277091442       26.93262307694481
H            3.28479355860986       13.22192194446417       26.36565843712875
C            5.71784661481385        6.80944691188770       21.95148576671255
H            5.89353276366030        6.60544372936510       23.00929519241980
H            6.36195261988325        7.63669154000395       21.65010646847665
C            6.02906873332897        5.56051529954918       21.13275731510630
H            5.18926903696772        4.86222701541881       21.20441793115431
H            6.90280667657286        5.07296292016559       21.57880648925027
C            6.32729095936946        5.85808603932775       19.66771352881334
H            5.46301005735111        6.31077018174989       19.18118827691358
H            7.17065086132069        6.54360659735800       19.57704157369759
H            6.56652244889684        4.93495324277317       19.13989447787411
Au           2.21626909205360       13.35836110002426       17.72274947298616
Au          -1.82887563143294        9.74566463007397       20.29481599421264
Au           0.75400125770060       15.47693201197483       19.22740116604901
Au          -1.04011921280211       13.40265914659050       21.70752377941062
S            1.51783198484329       15.66419684928531       16.97015671744875
S           -2.13506525908836       11.39250308509849       22.11525279298703
S           -0.17637204607165       15.57954061728923       21.42384349883013
C            2.93272058353126       16.79155067830328       17.02967987843266
H            3.21043115557953       16.98209379241843       15.99220886627427
H            3.77370993464560       16.31358216936763       17.53216217096602
C            2.58854911417861       18.10467977164644       17.72056305542212
H            3.49367045300524       18.72009108403380       17.76698527014450
H            2.27303740385743       17.89506105100023       18.74764763379555
C            1.48624823741472       18.86689755776839       16.99024705872832
H            1.23676065065112       19.77881367568202       17.53242452136958
H            0.59003233301526       18.25047254472711       16.91163879726129
H            1.81003443640629       19.13587890857163       15.98399310703180
C           -1.26781764157986       10.61052288546251       23.49112387982972
H           -0.25085890118926       10.34868517380858       23.19540283224367
H           -1.80987938783906        9.68850465321212       23.70723740376251
C           -1.24552006541102       11.50884569160695       24.71833568862616
H           -0.67599950267260       12.41517616700987       24.48795001158581
H           -2.26691107203752       11.81181444135016       24.96577288398230
C           -0.61231148541037       10.78751739046776       25.90663449105449
H            0.40387128743238       10.47342618741183       25.66300605119259
H           -0.57425791133563       11.44887307375037       26.77207645829291
H           -1.19268773417069        9.90226369364995       26.16941952136717
C           -1.71785998423584       16.51371497291624       21.21368555227925
H           -2.38780756670271       16.19461954057085       22.01148359653675
H           -2.18678172805846       16.26933066208367       20.25941148848281
C           -1.47329676759869       18.01346422505973       21.34519300589129
H           -0.92237392576075       18.20319320263433       22.27130608256464
H           -2.45010727472643       18.50220656096467       21.43051438410213
C           -0.71502316027122       18.61836742429242       20.16843451868498
H            0.29135342201854       18.20534653455313       20.10747834725125
H           -1.23169653802770       18.41392984011795       19.23016136359157
H           -0.63483567477241       19.69855307353695       20.29152442751512
H            5.85808236098700       11.08441147445626       20.34951034560950
H            6.34739917875026        8.16591909744293       14.90061375645756
H            6.01600098705127       14.75440445780445       20.26290156237377
H            7.78762103687956        8.64715077680454       13.98407802456169
H            4.44299088438486       14.82988666090827       19.44769974896530
Au           3.72628262515509        8.24711298956231       19.28726919158764
Au           1.49677428223068       11.37807798813771       15.56279692070752
Au           5.49519761863578        9.63119698904117       17.64320614073492
Au           3.64077241007688       11.80468288420946       13.53835046199860
C            7.68487425089144       11.65354955554451       21.34816203880585
H            7.72107299707660       12.65478087410071       20.91955595442988
H            8.70390799376503       11.28579349883666       21.46246282797550
