427
 energy: -689.613109035478 gnorm: 0.000574040264 xtb: 6.5.1 (579679a)
Au          22.53306216761476       23.83173106481775       30.11750665616976
Au          21.12991877127089       23.85384618076343       27.51967089399325
Au          23.16609087435230       23.82083008081011       25.38643104045256
Au          25.82994230827663       23.79991935841714       26.65621056392018
Au          25.43747162404383       23.82594915327484       29.59055459811275
Au          24.11318084325304       21.34265526047979       30.40570869746493
Au          26.18312929238101       21.32945758424697       28.17213844991173
Au          24.68331868330081       21.32247378904934       25.50362120237454
Au          21.67444009122692       21.35415015329790       26.10960836103999
Au          21.32350150688934       21.35390194177782       29.12549585691919
Au          23.63535731263088       25.56268572162905       27.84801208759801
Au          23.61085870276700       22.65945424653865       27.85895762223385
Au          23.58060108883245       19.81164279291681       27.86693381437655
Se          19.41763104668059       19.81191708549714       29.91919300378719
Se          20.33608532384943       19.81197989405359       24.55094901409399
Se          25.73093515262712       19.81197125391023       23.69748505354181
Se          28.20237656206384       19.81199863544361       28.66243321813810
Se          24.27185071398233       19.81210812589699       32.46509124537670
C           21.97285651048459       26.59667222879569       32.26192879753810
C           22.63911837287167       27.24039982095548       31.21783245541294
H           22.85435173534874       26.69739857076797       30.30557174342241
C           23.02883898574027       28.56500749618127       31.32719607990490
H           23.54059014401780       29.03845383027928       30.49736628654694
C           22.75772933059033       29.26647664823735       32.49315162378097
H           23.06130269354301       30.30250612911221       32.58860528371886
C           22.09666099074427       28.63816765155002       33.54227771737360
H           21.88289185535941       29.18478698788054       34.45379904938518
C           21.70477396942364       27.31268824592339       33.43199217130724
H           21.19346421830221       26.83248390657216       34.25852296150060
C           21.83112859131012       23.98515217732306       33.58750718161723
C           22.91721455025017       23.11327679534098       33.65517654291547
H           23.58088514036251       23.01983829667311       32.80332470826264
C           23.14971237390182       22.35207058518988       34.78962252082673
H           23.98424824092955       21.66060288167913       34.80813553010167
C           22.30557979951401       22.46378250881377       35.88512615837829
H           22.48257302400683       21.86604993946303       36.77171779687575
C           21.22747586955798       23.33801430729484       35.83677868296958
H           20.56247184434899       23.42727140663706       36.68817365416187
C           20.98525826396601       24.08738639838479       34.69652645043971
H           20.12297846738702       24.74325146912303       34.66137649843333
C           19.69500752550834       24.83643968098225       31.96326733694734
C           18.93510409983351       25.96496290755054       31.65672527405149
H           19.42508145007205       26.91662375894814       31.48362291034534
C           17.55245181565628       25.87739752218170       31.58295416149117
H           16.97177601569384       26.76312548768532       31.35258243271142
C           16.91362837886172       24.66686915992421       31.80912267150561
H           15.83301496309310       24.60337780744640       31.75521820367142
C           17.66366107340903       23.53404186054092       32.10052514687650
H           17.17236658982288       22.58456635609702       32.28092332973135
C           19.04415748862537       23.61373305079764       32.16309830422951
H           19.62542546746329       22.72406031734463       32.38173871161750
C           19.02376581172552       26.64491287073039       28.03374612724162
C           20.23446805051762       27.32848155478066       28.16346886800720
H           21.14358812770667       26.88669876971812       27.77411650362018
C           20.29197137770388       28.56259641520010       28.78831549024049
H           21.24559025114132       29.06999219689353       28.87430883010059
C           19.13353872677974       29.12999158077227       29.29994142918234
H           19.17220318215488       30.09203961761497       29.79764472678877
C           17.92136394199590       28.46254386530919       29.17333938104732
H           17.01370534140768       28.90615228675446       29.56695769776472
C           17.86219369180287       27.22732744092056       28.54524345925509
H           16.91176392766297       26.71296123403141       28.45838009793617
C           17.60582077136014       24.11523431241968       27.81644575312106
C           17.80071637575958       23.10987045985714       28.76352389485926
H           18.80066392692304       22.90855967851784       29.13089801276101
C           16.73598312462708       22.35891857941496       29.23395761904769
H           16.91550745826910       21.57279884127725       29.95897732092217
C           15.45271657113184       22.60868654272145       28.76823697139993
H           14.61808992816684       22.02034690761471       29.13151325618026
C           15.24318743360326       23.61015729398883       27.82915181602081
H           14.24303637003113       23.80714004535092       27.46038570501501
C           16.30910754367498       24.35730715594692       27.35236108190817
H           16.13591432642608       25.12510456696063       26.60694096388534
C           18.66942460303444       25.37516302077329       25.47804071543453
C           19.00357778022773       26.59645916005902       24.88976306865873
H           19.44637181641219       27.38311546519866       25.49041382096532
C           18.76735829003519       26.81289274356237       23.54101064502762
H           19.02541987400919       27.76794872340121       23.09802235794882
C           18.20337104604391       25.81372918171046       22.76043215412330
H           18.01786102958715       25.98580185202031       21.70654138860099
C           17.88034082693225       24.59059070841786       23.33327428848336
H           17.44105348239170       23.80591243438661       22.72803783809626
C           18.12300402456654       24.36566219215690       24.67879293279006
H           17.87943925862341       23.40321242330267       25.11615375265079
C           22.38678362761620       26.58858905998175       23.31309860143794
C           22.53483332059675       27.25424495438036       24.53094327590566
H           22.92222634551530       26.71911917395163       25.38934891332954
C           22.19588933323142       28.59083781033552       24.66048915113381
H           22.32623909900884       29.08109674883963       25.61822863964294
C           21.69804917639416       29.28249092868515       23.56569687996930
H           21.42865612642289       30.32817300320077       23.65840959779991
C           21.54242674298194       28.63179467747917       22.34704632660173
H           21.15457247242528       29.17047462335727       21.48985740238973
C           21.88320444449311       27.29406311293877       22.21695544620486
H           21.75355622307913       26.79668983258012       21.26249268773814
C           21.66814598364354       23.98578975406390       22.17683915733263
C           20.73652496017089       23.14059004596508       22.77939356874587
H           20.71601246429667       23.05304074389118       23.85961394760168
C           19.84796229705288       22.39971937677935       22.01659015505652
H           19.15012281856001       21.73034721751788       22.50649353398469
C           19.86794784984146       22.50403699904821       20.63298756686792
H           19.17793428899778       21.92177548166847       20.03340122987343
C           20.78150638809548       23.35140478306612       20.01969353964425
H           20.80330167672849       23.43507223076493       18.93913874477627
C           21.67928260410372       24.08234087626623       20.78170960107560
H           22.40447536186899       24.71914561370372       20.28827533602151
C           24.37828958297210       24.82107728953197       22.22305870836453
C           25.23943103456046       25.91827170363075       22.16970655536732
H           24.98726411384200       26.82887641487109       22.70186136463429
C           26.41127332478761       25.85358672164726       21.43109332328360
H           27.06852796144099       26.71473468337063       21.39347793901814
C           26.73955849644451       24.69634528570766       20.73929022859668
H           27.65254852530147       24.65077786223048       20.15703526801349
C           25.89822668897291       23.59255690669231       20.80180402755393
H           26.14840847930417       22.68406959509302       20.26560722025220
C           24.73496524304156       23.64686028965838       21.55141998024077
H           24.09100790757798       22.77580452222255       21.60718308095851
C           27.44314384243987       26.51844320086132       25.07731223348994
C           26.38250847055042       27.22354563087941       25.64955474177575
H           25.79916602355448       26.76538744042256       26.43900985418401
C           26.06052838673917       28.49970609475097       25.21944072655736
H           25.23090528974170       29.02211837005964       25.68128016285837
C           26.79709286061043       29.08888345673812       24.20167430407322
H           26.54604641391463       30.08423392191718       23.85387876130195
C           27.85780611581827       28.40004146261305       23.62574848464184
H           28.43703781786090       28.85969469233329       22.83284988585097
C           28.18207897173514       27.12261827037075       24.05716255258081
H           29.00706997752196       26.59175349008237       23.59559131419862
C           28.48357442354738       23.91507820835249       24.29164369693255
C           27.68191689782605       23.00664221059472       23.60131889558270
H           26.64125819123002       22.89078878923142       23.88197444533438
C           28.20161366309897       22.23995663486832       22.57078794412766
H           27.56450025047566       21.52411392402813       22.06391243206067
C           29.53258999150795       22.38041154191236       22.20397753858066
H           29.94156682781514       21.77960905293115       21.39993907604004
C           30.34049950844197       23.28671338188474       22.87821531506436
H           31.38204247182193       23.39752029664753       22.59898896269478
C           29.82486865826303       24.04504710310733       23.91750528576197
H           30.47117159869367       24.73247343892085       24.45113641630136
C           29.15123206410021       24.97965485567569       26.83358705081817
C           29.45482004285436       26.17256017162489       27.49019297559878
H           28.88043714020646       27.06756996966400       27.27829679443374
C           30.49401415879647       26.22060856785597       28.40745385551938
H           30.72534309835403       27.15487609277769       28.90581819855987
C           31.23667225960902       25.08198673347590       28.68492850440091
H           32.05037097178823       25.12376507855054       29.39967351192471
C           30.93226698758086       23.88627974789648       28.04642192802652
H           31.50975929608285       22.99339062656409       28.25716671142677
C           29.88866161133609       23.83001019607466       27.13801014439783
H           29.64886476283607       22.89067907040013       26.65070982440236
C           27.43754136405611       26.58743453883103       30.55996693386744
C           26.59812564959170       27.25834025144555       29.66912486211189
H           25.68899914090255       26.77959491160748       29.32679658542735
C           26.90988749122959       28.52877415408015       29.21452994024384
H           26.23640791489665       29.02625267075758       28.52653751479898
C           28.07500823251243       29.14681562675073       29.64535556763580
H           28.32822803819696       30.13935702525741       29.29121518240662
C           28.91962584704205       28.49067428019000       30.53294053567681
H           29.82844260788360       28.97301073014024       30.87483638200298
C           28.60731190022042       27.21887537452518       30.98923449406891
H           29.27769598779217       26.71492048978880       31.67620651714702
C           28.47389176111177       24.01170180593200       31.43158452106106
C           28.88180207561756       23.05587236089349       30.50108347417803
H           28.29329274176511       22.89825701055720       29.60439898643934
C           30.02159585880149       22.29704302865659       30.71237003649948
H           30.30678662079229       21.54622400692085       29.98388505380160
C           30.78073271072054       22.49103635550736       31.85787680787872
H           31.67099509132053       21.89664851301853       32.02769907504279
C           30.39003166296438       23.44353774325839       32.78986832150430
H           30.97741598058857       23.59645193285427       33.68802595600607
C           29.24439654559740       24.19642320018356       32.58387263563981
H           28.93974910600134       24.92267576377890       33.32871177286607
C           26.22834247039978       25.18816493134321       32.75516721023710
C           25.56494278583579       26.37516753174103       33.07294512546263
H           25.52486360479937       27.18172990509454       32.34923936540300
C           24.96073660591670       26.53186381677560       34.31072384551111
H           24.45247267981354       27.46001763653814       34.54601236412140
C           25.00725269844320       25.50741724785642       35.24574173173331
H           24.53866920446442       25.63329003052845       36.21491605785360
C           25.65129280861059       24.31723417138718       34.93359918933717
H           25.68856117759463       23.51264667944334       35.65907487277335
C           26.24403964371375       24.15002785942474       33.69226832059916
H           26.73041205128207       23.21090202824331       33.45106526263501
C           19.58126948941302       19.81201895034162       31.79442863085621
C           20.80408949862183       19.81162089608454       32.45115452138272
H           21.71787412581479       19.81123668205702       31.87194464116796
C           20.86560035105823       19.81172251635423       33.83516932795258
H           21.83283322788403       19.81142330736336       34.32519361262143
C           19.69680941946426       19.81220662373887       34.58415393586458
H           19.74302234772497       19.81229355746895       35.66697698936446
C           18.46913680077843       19.81257315889388       33.93534005421780
H           17.54981686740937       19.81293175272720       34.51011529219556
C           18.41193029190466       19.81248068592325       32.54856252089034
H           17.45294088471066       19.81276127935666       32.04317072900250
C           18.58939075090710       19.81201258932985       25.25343214886936
C           17.53058806465268       19.81221024050526       24.35172630299370
H           17.73669405606821       19.81230742369974       23.28750548263481
C           16.21915923120158       19.81227554760164       24.80440862569576
H           15.40416860102725       19.81241735143738       24.08932711573661
C           15.95182366399045       19.81215067750436       26.16671800976295
H           14.92858631909632       19.81219987946242       26.52406416790894
C           17.00666284135039       19.81195961761522       27.06878165950318
H           16.81447867562767       19.81185790158524       28.13523034639013
C           18.31464044816758       19.81188955032836       26.61305091994415
H           19.13212574296985       19.81173591582286       27.32201302049505
C           24.46659356554655       19.81202177376788       22.30354186133515
C           23.09600087031257       19.81170054773981       22.52046990541691
H           22.72001301745886       19.81140146877059       23.53462256581960
C           22.20863748982303       19.81177597034042       21.45673291181313
H           21.14232895734304       19.81153843827591       21.65349379590050
C           22.68482026380766       19.81215921654888       20.15284282350210
H           21.99236223578666       19.81222867610051       19.31910010003341
C           24.05482933188853       19.81244897935996       19.92614579263713
H           24.43862140074763       19.81273143356664       18.91211736292798
C           24.94004664591974       19.81238157531736       20.99510952080077
H           26.00905431879698       19.81260529539148       20.81530993528726
C           29.17096333784342       19.81189885770684       27.04917491818068
C           28.56830870696788       19.81221121540855       25.79910240299094
H           27.48845489554635       19.81253525821462       25.72824635450146
C           29.33451382567601       19.81209508149268       24.64550181845021
H           28.84224284943077       19.81231732624538       23.68007012860575
C           30.72014075420863       19.81168192418840       24.72700066979676
H           31.31927795924113       19.81158354149750       23.82381961225394
C           31.33070584088277       19.81139339923155       25.97389795304671
H           32.41219222318011       19.81107352963519       26.05075687397456
C           30.55987494160630       19.81150075498412       27.12769924461958
H           31.03779209318235       19.81127461921317       28.10070018066948
C           26.09997058530150       19.81212769078468       32.91428192077467
C           27.11558449127939       19.81178675412219       31.96932249737826
H           26.86373156742709       19.81138282399512       30.91706736731105
C           28.44430626837394       19.81196841308656       32.36002399123293
H           29.22103921849322       19.81169511099868       31.60437314308471
C           28.77659570497656       19.81248587466226       33.70761591450765
H           29.81653616026387       19.81261761038081       34.01295887777416
C           27.76586204300941       19.81282993356696       34.65936368491943
H           28.01193677178755       19.81322002847121       35.71530400675564
C           26.43594922377718       19.81266056370556       34.26391922878792
H           25.64902846011059       19.81293138972875       35.00942442703195
Cl          23.68064053695376       28.12679976094444       27.84444235111236
P           21.51154945571045       24.85623507937504       32.01931954704126
P           19.06347886532502       25.02203412254311       27.21739867636532
P           22.87346995024949       24.83881379727665       23.24255521845103
P           27.75282157880282       24.83390233181653       25.68226309502599
P           26.93617801821388       24.92591825218360       31.10111398796781
Au          22.53282605432170       15.79162500847197       30.11716332542445
Au          21.13031374273086       15.77008293492164       27.51985106160495
Au          23.16615533146955       15.80281106766917       25.38656196301536
Au          25.82983418563301       15.82419768438508       26.65658693838463
Au          25.43798348660049       15.79745527343986       29.59023460376488
Au          24.11357017110625       18.28215941140776       30.40565808687533
Au          26.18327393279874       18.29423521445677       28.17185633535910
Au          24.68346882824400       18.30159582196967       25.50385030578195
Au          21.67447431625789       18.26991220682738       26.10998647678761
Au          21.32359781869703       18.26994970235313       29.12516435694372
Au          23.63540044755629       14.06154875939279       27.84800694599280
Au          23.61058280555263       16.96447429913341       27.85869173461889
C           21.97285570864382       13.02732241366567       32.26195508120716
C           22.63909603944876       12.38359508288634       31.21784519372272
H           22.85439720053214       12.92663114206118       30.30561858594585
C           23.02870613422228       11.05894771053482       31.32715867636329
H           23.54044598367289       10.58549646396404       30.49732429498478
C           22.75750458953417       10.35744353695516       32.49307359687931
H           23.06099411772412        9.32138550401206       32.58849039153471
C           22.09645199464786       10.98575391648647       33.54220875337638
H           21.88261209208965       10.43910850542165       34.45369830471354
C           21.70467515618519       12.31126984804149       33.43197403074311
H           21.19337678816096       12.79147522133625       34.25851116194273
C           21.83153034953262       15.63882303815550       33.58761655736539
C           22.91772196439412       16.51056957107704       33.65523663079968
H           23.58138281298331       16.60391010237087       32.80337600599815
C           23.15037226807175       17.27175178460429       34.78966327183451
H           23.98498863465599       17.96312439257356       34.80812518230467
C           22.30629371066857       17.16012240036051       35.88521586216597
H           22.48341204365672       17.75782365076345       36.77180241191718
C           21.22809254107919       16.28600594824700       35.83692826542838
H           20.56313502715082       16.19681092066176       36.68836509409979
C           20.98571819719668       15.53667145518919       34.69668521439753
H           20.12336567193076       14.88089950535540       34.66158155892542
C           19.69518843658530       14.78785588011883       31.96348083941266
C           18.93509637801717       13.65944939485979       31.65697474538652
H           19.42491672678472       12.70771173853121       31.48384926932209
C           17.55245378656544       13.74723109186018       31.58326817340203
H           16.97162801926952       12.86159396248251       31.35292301653111
C           16.91383027102404       14.95785922562422       31.80946940716652
H           15.83322411889130       15.02151728558634       31.75561460080860
C           17.66405237226550       16.09057252707639       32.10083413262633
H           17.17291728320489       17.04012707369313       32.28125438280524
C           19.04453877721978       16.01066457378541       32.16333937356465
H           19.62596205903949       16.90024493867667       32.38194504801091
C           19.02385488987802       12.97905016539513       28.03395202572215
C           20.23453800819630       12.29541149132095       28.16349357258032
H           21.14361399008869       12.73711438316971       27.77394864771762
C           20.29208093893658       11.06133579374845       28.78841359387539
H           21.24568490809680       10.55388834402469       28.87426750129542
C           19.13371083520271       10.49404938381549       29.30030110279104
H           19.17241083726410        9.53203539282933       29.79806815154130
C           17.92155452186758       11.16156414494125       29.17388070343311
H           17.01394342132383       10.71804112802412       29.56770547383618
C           17.86234250462241       12.39674019969677       28.54570636518084
H           16.91192672441629       12.91115551698067       28.45898215687043
C           17.60585942606095       15.50866731500579       27.81657098148347
C           17.80074346816810       16.51406399494394       28.76361652016696
H           18.80069051048238       16.71541643149303       29.13096501616096
C           16.73600141261248       17.26499793263061       29.23405626298833
H           16.91552292848650       18.05113844022582       29.95905407313368
C           15.45273164927868       17.01518163007069       28.76837304480067
H           14.61809805655842       17.60350937072509       29.13165260878348
C           15.24320913918715       16.01367560565089       27.82932393784015
H           14.24305400816475       15.81665362776965       27.46058977960421
C           16.30913898962095       15.26653926229710       27.35253102358262
H           16.13594665936186       14.49870816370014       26.60714550209452
C           18.66943631049738       14.24865454773371       25.47819924818108
C           19.00366443360230       13.02736001878022       24.88995795251625
H           19.44654307037740       12.24076230110063       25.49062264816470
C           18.76741604563430       12.81085062335228       23.54122219556413
H           19.02554146435423       11.85579797153643       23.09826328855722
C           18.20331844172660       13.80993409861187       22.76062120861205
H           18.01778456849086       13.63780234914795       21.70674395513426
C           17.88020887407644       15.03306907383477       23.33342484991576
H           17.44083468856914       15.81768549967725       22.72817105779308
C           18.12290555510804       15.25807540370467       24.67892553141894
H           17.87928138744793       16.22052532788737       25.11625175775426
C           22.38682528646554       13.03539907162669       23.31308070170515
C           22.53492122644410       12.36971571247603       24.53090397044510
H           22.92229975082429       12.90483981093523       25.38931839191940
C           22.19603728401919       11.03310234113140       24.66041287420758
H           22.32641720322627       10.54281881867254       25.61813580080779
C           21.69821186186767       10.34145951840475       23.56560629370737
H           21.42886171219003        9.29576348232040       23.65829146690776
C           21.54254602316012       10.99218442118826       22.34697652000149
H           21.15470178352671       10.45351306454735       21.48977722597916
C           21.88326330610725       12.32993519767821       22.21692195394663
H           21.75357995366998       12.82733237605607       21.26247629401244
C           21.66798541344309       15.63817772174092       22.17694257002834
C           20.73627835994507       16.48323921201444       22.77955558003020
H           20.71574304448873       16.57069543936042       23.85977956159411
C           19.84764043140074       17.22407573268057       22.01680830606470
H           19.14973538405830       17.89334420743733       22.50676003589238
C           19.86762991624223       17.11985064389515       20.63319872548950
H           19.17755270915016       17.70208064986758       20.03365550132424
C           20.78127016024184       16.27261441914743       20.01984430503280
H           20.80306708475784       16.18901972921228       18.93928414496004
C           21.67912480340998       15.54171887302291       20.78180723372087
H           22.40437801667183       14.90501693969687       20.28832926764546
C           24.37819529653585       14.80310577575476       22.22306746494427
C           25.23939081175329       13.70596172103899       22.16956007569855
H           24.98727788499832       12.79527409062982       22.70159854089832
C           26.41122135882273       13.77080558734601       21.43094096074363
H           27.06852185177259       12.90969754952860       21.39320542339865
C           26.73943830867498       14.92815571190719       20.73928729213687
H           27.65242098733211       14.97384721305805       20.15703021505930
C           25.89804999278653       16.03189339710935       20.80195500194004
H           26.14817912738775       16.94046599816685       20.26587749165812
C           24.73480048854536       15.97742917573215       21.55157680358874
H           24.09079358025258       16.84844066797771       21.60746527097454
C           27.44314616256502       13.10560335938963       25.07719202434992
C           26.38255679026025       12.40045987356956       25.64947156116639
H           25.79928102130244       12.85856039160773       26.43900733550840
C           26.06053246682908       11.12433336833146       25.21929375775064
H           25.23094176432075       10.60189496383764       25.68116228482375
C           26.79700930643401       10.53522399180158       24.20142557181553
H           26.54592738905917        9.53989955891885       23.85358072804739
C           27.85767987002785       11.22410112812524       23.62546342105931
H           28.43684309865789       10.76449945029469       22.83248483852065
C           28.18199534324014       12.50149358917416       24.05694072395497
H           29.00695207609555       13.03238538352870       23.59533953910803
C           28.48364542418544       15.70897625570381       24.29165402249631
C           27.68201986018413       16.61747445969426       23.60137292210538
H           26.64136174003345       16.73333639916212       23.88201688080999
C           28.20174015337870       17.38421422257130       22.57089670397395
H           27.56464493384017       18.10010762740612       22.06406890018533
C           29.53271373168709       17.24374941361639       22.20408664588890
H           29.94170975317918       17.84459172037952       21.40008772446156
C           30.34059465911410       16.33738251789486       22.87827201871997
H           31.38213588896829       16.22656669272052       22.59904282384659
C           29.82493921544473       15.57899657373299       23.91751321918023
H           30.47122279516866       14.89152106318635       24.45110432395574
C           29.15127898812744       14.64424566674713       26.83353089905326
C           29.45484631357541       13.45129225506111       27.49006173796007
H           28.88043718424452       12.55631008798718       27.27812125342388
C           30.49405018956904       13.40315984521037       28.40730862358253
H           30.72535880825357       12.46885674865802       28.90561608246942
C           31.23674221886973       14.54174404290224       28.68484581855860