388
 energy: -559.512205489639 gnorm: 0.000764302139 xtb: 6.5.1 (579679a)
Au           7.72505920184727       19.91394617883351        7.09986642610998
Au           9.46944421547427       21.90277337191988        5.19315382267408
Au          10.86680141265302       19.71041205759513        4.02558091002762
Au           7.25942468925516       19.91385053820639       10.83740320374995
Au           6.21171245612127       21.69837658959259        8.49815432876039
Au          10.42846572732543       20.11702722394984        7.52577125082444
Au           9.14558679194902       22.58147800171415        8.75506922941911
Au           6.50695796700221       17.92537746774920        4.82188705811439
Au           8.84775722088385       18.12922732542930        8.82679269468167
Au           5.93858367413084       17.24648376326044        8.35567098689362
Au           6.28040118225037       22.81085598135392       11.91144904646814
Au           6.87661025640787       19.91167031808243       13.91419754044247
Au           7.94188926252609       17.01460389008862       12.11952615389982
Au          13.08255322427840       19.91386893878727        6.08177723475285
S            8.81447864431867       21.72919791794881       10.92109077586033
S            5.31500310204339       23.48560891444253        9.87110100551364
S            9.35006452896645       23.77755905523787        6.75019239092461
S            9.37752576212448       16.34067261226841       10.37753141219672
S            6.99777360056281       22.25074413583292       14.08463456487885
S            6.71759728625894       17.57238956310310       14.05373840299973
S            6.23628632829088       16.05148827400781        6.36189035765475
S           12.75647459086160       20.35913446457740        8.38419590176069
S           13.33450739724563       19.46738306506121        3.77071908685308
S            5.72902094580414       18.09961124937549       10.53686015172599
C           10.46092765326780       21.12370775685160       11.38267250477075
H           10.80192092667802       20.43452782664824       10.60458699122248
C           10.40003104495950       20.38918760571350       12.71415087549282
H            9.98570141906154       21.04991906245412       13.48223739424644
H            9.73558402304365       19.52582616626910       12.61986253834756
C           11.79778563670829       19.91540771149749       13.11917884000801
H           12.15493740584407       19.17985153786042       12.39000850862134
H           11.74596843121688       19.42123544811789       14.09365028127663
C           12.77343187528462       21.09170568580183       13.18671957440445
H           12.46585506031675       21.77322700493880       13.98704318522230
H           13.77473756707276       20.72220889791770       13.42595092715398
C           12.81121202757999       21.85074176844204       11.85908560422990
H           13.21253089211222       21.20647870274482       11.06952222743833
H           13.46968582664870       22.71942938424940       11.94806676154973
C           11.40995178770568       22.31441210234015       11.45729002019329
H           11.02794939802788       23.04169985239293       12.18013786642638
H           11.45360664756345       22.80347249071716       10.47955643725049
C            6.35092506052140       24.83773982702574        9.25500985018235
H            7.39631850662571       24.51062267663125        9.24384257883033
C            5.92353971517912       25.17596112194314        7.83115016581121
H            4.86507259138683       25.45484216632319        7.82243034041146
H            6.03893183622438       24.28967472843397        7.20140643856463
C            6.77840775246861       26.31161606417819        7.26747742965988
H            7.81625506879585       25.96904327918001        7.18228720479376
H            6.42943283070528       26.56602643825047        6.26221533357682
C            6.70432021284323       27.54342115898140        8.17086298014134
H            7.36948663674936       28.32161340683919        7.78529682637943
H            5.68316462500471       27.93971276899787        8.16350107256230
C            7.10439342436298       27.19278296396861        9.60610851187248
H            7.00184300852369       28.07544068927292       10.24380485976076
H            8.15509557197961       26.88249543672148        9.62778277028833
C            6.23196041081430       26.06014463319800       10.15672266687452
H            6.55628574960277       25.79959834051032       11.16815433759949
H            5.18600151261508       26.37793281661169       10.20965392614658
C           10.98719821712264       24.52613927619141        6.84982689154013
H           11.14613969243338       25.01921729094073        5.88501817369618
C           12.09576977010165       23.50819741919592        7.08114952757790
H           12.08305088454322       22.76788437637574        6.27756590451621
H           11.91282155381311       22.97522818909480        8.01988318544680
C           13.45958606440262       24.19512082102750        7.14284303659025
H           13.67624681603518       24.66947987929776        6.17977111306694
H           14.23341076368902       23.44578522029997        7.33177427051473
C           13.47037688229161       25.24788480263248        8.25248880740953
H           13.33478954250212       24.75608062397318        9.22198981311093
H           14.43683350388550       25.75957633910296        8.26661850593403
C           12.35095652681973       26.26835920846725        8.03537175739105
H           12.34374676890318       26.99075794144706        8.85648472499092
H           12.53015063171643       26.81810976661010        7.10520507973474
C           10.98916342752013       25.57279417366913        7.96037004870847
H           10.20285057165957       26.30904618884412        7.77309403491887
H           10.76800337072312       25.08310995120467        8.91489089301094
C            8.52538715808179       14.98878156975362        9.52478683193558
H            7.51474020638624       15.31571415467162        9.25705153921014
C            9.29005582747003       14.65172651555569        8.24960269814325
H           10.31837338445412       14.37352814137799        8.50133656435365
H            9.33238119957413       15.53837235003324        7.61127373089413
C            8.60102015958111       13.51592311127608        7.49238438699750
H            7.61580165747395       13.85793821624417        7.15459403131303
H            9.18683688866278       13.26238393064629        6.60379240901791
C            8.45144108600341       12.28359268118981        8.38563436459519
H            9.44330190591993       11.88796559141604        8.62966549935621
H            7.90224160952478       11.50521870887642        7.84785851200388
C            7.71013474484645       12.63310593628157        9.67839407743241
H            6.68621923011683       12.94280505170502        9.44089577561531
H            7.65315463255550       11.75010264964700       10.32129011170857
C            8.41940802796240       13.76584953375094       10.42740386118946
H            7.85584497828818       14.02560319933628       11.32795584587431
H            9.42032315521193       13.44853785858315       10.73611418633414
C            5.58972329900420       22.70295814244107       15.12298764962324
H            5.85308066465473       22.39537942888350       16.14022075584385
C            5.41981590046204       24.21922392521799       15.08152755460727
H            6.34564857355796       24.69930054917746       15.40936049840619
H            5.23052697177465       24.52948866806285       14.04837612403283
C            4.25601399744236       24.65830920190995       15.97403940306031
H            4.48153730972728       24.41191861121302       17.01714330222802
H            4.13436840983013       25.74304827952363       15.90407945874948
C            2.96004851302263       23.96375454723802       15.55059407255373
H            2.69282222278497       24.27426675336872       14.53471123696724
H            2.14681618145441       24.26183014837468       16.21860489578961
C            3.12919015991942       22.44377972094080       15.59222340061810
H            2.21177913901766       21.95836608578919       15.24626541781194
H            3.31276493209190       22.12125000339869       16.62261273040273
C            4.29719945563144       22.00866994039892       14.70517363608801
H            4.07943244718841       22.25376793736737       13.66004027809403
H            4.42751922182419       20.92432370023763       14.77002663488468
C            7.83432678416331       17.12187520263809       15.40112852465656
H            7.33262078713736       17.42824625352089       16.32479133239599
C            9.18815976387063       17.81878029827123       15.30785207611161
H            9.65195337519156       17.57524678134442       14.34588799038246
H            9.04393952618744       18.90282144304177       15.34010902887204
C           10.10881396795758       17.38480169295417       16.44997066458769
H           11.08162799402212       17.87213116124227       16.33544982121508
H            9.68182132424803       17.70602739256034       17.40595826276622
C           10.28586662083779       15.86517253462978       16.44946820970398
H           10.79049035761404       15.55611066258920       15.52768495827668
H           10.91480652947934       15.56780019915696       17.29352770174340
C            8.92732910684687       15.16809909427704       16.54790741924536
H            8.45669364479991       15.41322232518148       17.50605583286913
H            9.06423197136301       14.08362559054533       16.50884945013294
C            8.01205440591104       15.60593441594085       15.40144359269314
H            7.03539544566600       15.12402188969114       15.49637246494641
H            8.44528949090870       15.29675765823673       14.44425692368177
C            4.62544322249195       15.30241738345457        6.05435994234398
H            4.70993235742803       14.80919681009920        5.08027729891548
C            4.34946508946779       14.25588281782829        7.13016837643576
H            5.15781563819971       13.51978733118400        7.14296640226246
H            4.32797588229567       14.74574231534291        8.10965585140172
C            3.01147830035610       13.55999405776832        6.86659519318400
H            2.81581562997647       12.83766635735129        7.66415078584225
H            3.06766635385909       13.01011910716438        5.92106268207948
C            1.87290087568402       14.58022064162109        6.80037664048197
H            1.76480272696086       15.07219446246558        7.77323814833866
H            0.93298127419046       14.06830950520211        6.57551240271210
C            2.15715378142154       15.63282486765095        5.72755366673003
H            2.18507073975771       15.15830103852259        4.74088348315768
H            1.36051697882927       16.38203025675319        5.71943872012625
C            3.49383523148977       16.32006392495463        6.00441652598010
H            3.70436299488243       17.06009520997791        5.22852735187035
H            3.43923216306073       16.85338489763191        6.95905723973595
C           12.99784360746451       18.78837600979135        9.25475689619994
H           12.31601082236563       18.81686110499341       10.11154090971637
C           14.43363224307480       18.71281440933553        9.76852857044429
H           15.12440388523727       18.68230923263455        8.91995244698485
H           14.66266894264438       19.60582829132405       10.35572655724431
C           14.60395986818479       17.46181681228453       10.63617344374463
H           15.63625089565771       17.40218429815006       10.99281490039738
H           13.95015144620086       17.53813497983544       11.51214812385619
C           14.25727453711571       16.19780859571643        9.84578571861048
H           14.97736389117742       16.06958488020348        9.03018367992766
H           14.33180704316419       15.32414033997852       10.49969268171807
C           12.84504323928739       16.28598437579392        9.26473732226615
H           12.10146463290133       16.29522680042009       10.07021394123822
H           12.64662985110015       15.40931952850819        8.64034588333699
C           12.68914924048759       17.55208485966173        8.42205562067642
H           11.66881693937107       17.60747710294462        8.03695468092567
H           13.36851729542449       17.51838356076247        7.56404314975543
C           13.78469756341319       21.03773358792821        2.98678208995339
H           13.33666448050718       21.00897242344796        1.98767197124647
C           13.27919672955285       22.27424970023239        3.71653872768147
H           13.72446924885892       22.30808665647020        4.71625816710616
H           12.19521862287314       22.21897013183148        3.83648345862016
C           13.63933824181390       23.54016941461958        2.93862656309389
H           13.11864744358683       23.53091028589742        1.97395712107733
H           13.29249270760359       24.41695112927147        3.49426152784427
C           15.15156841574806       23.62809740491738        2.72589780949990
H           15.38602764676525       24.50153821520425        2.11061379316301
H           15.64689382952164       23.75660955195551        3.69456537623185
C           15.68340362794143       22.36384170907389        2.04660514234425
H           16.77190933128102       22.42338094450307        1.95724060190736
H           15.26738784603476       22.28727618595048        1.03581996342537
C           15.30305142988534       21.11306364472467        2.84516274837658
H           15.76179415760424       21.14368040479711        3.83853836471060
H           15.67044401375895       20.21989718754483        2.33329058912939
C            4.02105410590035       18.70933604400072       10.57813382671466
H            3.88368279948250       19.39742708121050        9.73887684867306
C            3.08008125665188       17.52053886613858       10.41903070730865
H            3.27114859114453       16.79404592745150       11.21469759888680
H            3.27698039555974       17.02961820478445        9.46127429199774
C            1.62404339019555       17.98743084069223       10.46355130699366
H            1.43022658087888       18.63038318827843        9.59837121880543
H            0.96205388647776       17.11999373255852       10.38979811082949
C            1.33607227801085       18.74966812947382       11.75825612422137
H            0.30749774555990       19.12140114245538       11.74333037702733
H            1.43603708543974       18.06963781164313       12.61098928554408
C            2.30098122815612       19.92418144921308       11.93019311713195
H            2.11275596680885       20.42084098777443       12.88642614282741
H            2.13578103535188       20.65840861770389       11.13400062634264
C            3.75428607567262       19.44691894849362       11.88231131818898
H            3.96542162401770       18.78733768918763       12.72999168812603
H            4.42347895962212       20.30888652151130       11.95275809398120
Au           8.14201366814304       19.91361951464449        3.77183176289498
Au           6.39853889575307       21.90279495746220        5.67859355271054
Au           5.00078937012427       19.71064370931267        6.84622633578030
Au           8.60803872853464       19.91357351047070        0.03414072982053
Au           9.65575331078717       21.69898069342460        2.37362310941190
Au           5.43868409761725       20.11684672007937        3.34590052349853
Au           6.72097183398246       22.58197391488895        2.11625473231965
Au           9.36176034842639       17.92554098282692        6.04877463377943
Au           7.01975003406673       18.12885522988315        2.04513485453786
Au           9.92574385476767       17.24722679193069        2.51569403084604
Au           9.58717508842191       22.81095242152976       -1.04003088301637
Au           8.99072802098182       19.91156455771624       -3.04275148909240
Au           7.92574219377510       17.01466770141991       -1.24761877768201
Au           2.78436107302670       19.91346779165991        4.78913635961874
S            7.05286580502743       21.72913492259574       -0.04943328215480
S           10.55240248381944       23.48563387453568        1.00045889863531
S            6.51730030569689       23.77760650778802        4.12145206170386
S            6.48981587872045       16.34064453166852        0.49401669331329
S            8.86949045380229       22.25080256284157       -3.21306638727668
S            9.14967333940564       17.57226442007132       -3.18202828946612
S            9.63122190931634       16.05156927157164        4.50948152177481
S            3.11090304523336       20.35916035125014        2.48741729758609
S            2.53272569418560       19.46731540020710        7.10095817545926
S           10.13844504846378       18.09958070634690        0.33486924534568
C            5.40640836647905       21.12370946631906       -0.51107122191745
H            5.06541785364816       20.43452974277861        0.26701225293459
C            5.46730119321124       20.38919188734953       -1.84255407516193
H            5.88162879205837       21.04992202309721       -2.61064327741515
H            6.13174322845861       19.52582638413886       -1.74827179149975
C            4.06954148800058       19.91542009381060       -2.24757535244407
H            3.71238959240566       19.17986560346214       -1.51840358401461
H            4.12135308820381       19.42124606554454       -3.22204626914903
C            3.09389959312048       21.09172136345741       -2.31511312190315
H            3.40147771482968       21.77323998209177       -3.11543860297955
H            2.09259152510635       20.72222860204614       -2.55434416402502
C            3.05614128195301       21.85075579902143       -0.98747549493471
H            2.65482071269313       21.20649120656034       -0.19791427341416
H            2.39766474812134       22.71944169337866       -1.07645308391112
C            4.45740360335403       22.31442979529492       -0.58567137871785
H            4.83939985982011       23.04170707535541       -1.30853492045067
H            4.41377638421010       22.80348867427438        0.39206628609916
C            9.51641574265329       24.83770536562252        1.61658351399260
H            8.47102238096672       24.51058297743257        1.62774603739056
C            9.94378421577688       25.17591183179537        3.04045178612449
H           11.00224272113072       25.45483393471003        3.04917223722689
H            9.82840622663041       24.28960364585464        3.67017866225516
C            9.08891784282332       26.31159550720142        3.60409382531511
H            8.05106785577458       25.96903078595428        3.68927032132034
H            9.43786548990248       26.56601634655025        4.60936313765356
C            9.16300231265193       27.54341662842665        2.70072468359512
H            8.49783863189879       28.32161851627266        3.08627973460739
H           10.18416004051928       27.93970234178523        2.70808780676698
C            8.76294193393598       27.19276614407978        1.26547919214658
H            8.86548328452551       28.07542472860069        0.62778111409283
H            7.71224319443666       26.88246923441010        1.24380053794635
C            9.63538457217988       26.06012565994925        0.71488024808766
H            9.31108211512115       25.79958934681466       -0.29656184248776
H           10.68133905431515       26.37793387608922        0.66196511941034
C            4.88015883488624       24.52614721001473        4.02173500819775
H            4.72121622661139       25.01923503009427        4.98653896261950
C            3.77160063424795       23.50819031241840        3.79042716290747
H            3.78430505999332       22.76791106393308        4.59403691545010
H            3.95456615678319       22.97519379952097        2.85171130783515
C            2.40777944047762       24.19510710679456        3.72875999466794
H            2.19113116107403       24.66948184790461        4.69182868632489
H            1.63395414749594       23.44576570982285        3.53985630548050
C            2.39696988507490       25.24785067687195        2.61909745603334
H            2.53254455551719       24.75603095302208        1.64960306554302
H            1.43051055258513       25.75953784926894        2.60497510728791
C            3.51639725451486       26.26832330745436        2.83618732970787
H            3.52359227789457       26.99071135447211        2.01506607474231
H            3.33720693193478       26.81809024771208        3.76634703765363
C            4.87820051354434       25.57276513135654        2.91116509797742
H            5.66450632187344       26.30902737969402        3.09843353583884
H            5.09937211221707       25.08303276366164        1.95666874047507
C            7.34196690504837       14.98878978228429        1.34680627467880
H            8.35261397725576       15.31572123959097        1.61452508065119
C            6.57729378110204       14.65173747768793        2.62199241444416
H            5.54897438349054       14.37354102267360        2.37025751366235
H            6.53498027732371       15.53839717407646        3.26031061401236
C            7.26631362119501       13.51590976247497        3.37919797629640
H            8.25153795979982       13.85790485843006        3.71699051387757
H            6.68049640413593       13.26237086470277        4.26778983901120
C            7.41588296254832       12.28357587957982        2.48595006278466
H            6.42401801261618       11.88795798457028        2.24192091504475
H            7.96507708672303       11.50519375931359        3.02372085404382
C            8.15718624368135       12.63309193490033        1.19318915917241
H            9.18110705894474       12.94277683366371        1.43068282454396
H            8.21415586195115       11.75008748511548        0.55029265425477
C            7.44791939072792       13.76584692438484        0.44418690642117
H            8.01147770064441       14.02557957602061       -0.45637505145495
H            6.44700229374134       13.44853231922111        0.13548193123631
C           10.27761196024576       22.70293754686522       -4.25136831625146
H           10.01426704960517       22.39536355652117       -5.26860684428823
C           10.44751881757249       24.21920291933495       -4.20991972417431
H            9.52168767844381       24.69927411891464       -4.53776717393160
H           10.63679178843026       24.52946687698578       -3.17676439185266
C           11.61131952533555       24.65830326692495       -5.10243128686008
H           11.38580610001544       24.41191987818850       -6.14553951621519
H           11.73295770228552       25.74304342151862       -5.03246730269028
C           12.90729303395310       23.96376272827322       -4.67898842676413
H           13.17451548831890       24.27427804191925       -3.66310589748560
H           13.72052285833931       24.26184664841842       -5.34699927591126
C           12.73816532682196       22.44378656656946       -4.72061657193349
H           13.65558263961562       21.95838423561222       -4.37465911646937
H           12.55459787623762       22.12125735261844       -5.75100770002666
C           11.57015240041649       22.00866806069098       -3.83357013605102
H           11.78790966261180       22.25376095646622       -2.78843429507899
H           11.43984281204207       20.92432189519761       -3.89843407328293
C            8.03300597466267       17.12188422188508       -4.52952209795137
H            8.53472809467772       17.42825225414127       -5.45317996796962
C            6.67917217549319       17.81879129112755       -4.43627063411666
H            6.21536758287082       17.57525559362439       -3.47431293633692
H            6.82339825848762       18.90283110704681       -4.46851836984609
C            5.75851475532050       17.38480987198347       -5.57838482688758
H            4.78570114388918       17.87214104393149       -5.46386671152809
H            6.18551067797696       17.70602883735788       -6.53437263053462
C            5.58145863838194       15.86518062223557       -5.57787300284459
H            5.07684122021673       15.55612377333977       -4.65608431415088
H            4.95251245990169       15.56780396179041       -6.42192613429777
C            6.93999444066783       15.16810465482445       -5.67631860049812
H            7.41062829482736       15.41322390702497       -6.63446807875818
H            6.80308882106172       14.08363103313189       -5.63725669970078
C            7.85527117444652       15.60594316021229       -4.52986012247560
H            8.83192780103136       15.12402379376598       -4.62478256948721
H            7.42202875846891       15.29675326480490       -3.57268192321827
C           11.24193821159196       15.30236368691608        4.81729797033930
H           11.15738685466882       14.80915144294860        5.79137716514175
C           11.51791025382163       14.25582735498780        3.74147781638063
H           10.70954715352010       13.51974744022654        3.72865201316826
H           11.53944707223551       14.74563444922168        2.76196945790563
C           12.85590092856387       13.55996938148023        4.00501771989089
H           13.05155094334451       12.83766237439894        3.20744037214432
H           12.79971833202922       13.01008708855169        4.95054259868224
C           13.99444757520118       14.58023209236977        4.07122597292085
H           14.10250985710641       15.07222473445495        3.09836785184338
H           14.93438190218354       14.06833466551735        4.29605258047093
C           13.71020688611388       15.63280667357020        5.14408722144358
H           13.68229806003017       15.15827015651404        6.13074709767937
H           14.50682387222410       16.38203276460040        5.15219265526460
C           12.37352209931002       16.32003509489902        4.86728834058997
H           12.16290790209844       17.06009108813481        5.64313500494004
H           12.42821153858884       16.85334478697720        3.91264968033202
C            2.86951191522173       18.78839891389119        1.61685903099595
H            3.55133967758918       18.81685162115274        0.76006593699043
C            1.43372739702424       18.71282525409869        1.10306044065377
H            0.74294336422146       18.68231012354544        1.95162553103724
H            1.20468758835344       19.60583932804313        0.51586398814345
C            1.26339182140546       17.46183403443264        0.23540386776463
H            0.23110269747857       17.40220324526198       -0.12124632463638
H            1.91720409781615       17.53815154826875       -0.64056804371169
C            1.61006727213218       16.19782026252875        1.02578668121036
H            0.88996639576156       16.06958858233634        1.84137695240608
H            1.53554239126903       15.32415613581961        0.37187155638895
C            3.02228883064905       16.28600281249933        1.60686109064435
H            3.76587165825671       16.29523914333764        0.80138722179612
H            3.22069182412693       15.40932623259856        2.23124043091495
C            3.17818724139174       17.55210400621120        2.44955760724767
H            4.19852163921765       17.60748444169196        2.83465318681632
H            2.49881311589057       17.51841184979195        3.30756644919253
C            2.08264116967125       21.03772812027801        7.88483288597461
H            2.53066450595107       21.00894414837768        8.88394374191706
C            2.58812229776380       22.27426629379718        7.15509787914248
H            2.14287277401213       22.30810988461185        6.15537032277447
H            3.67209077593335       22.21898027656222        7.03515892455826
C            2.22799574386795       23.54018465242690        7.93300109486696
H            2.74868656414451       23.53091533586956        8.89766949772464
H            2.57484144282338       24.41696211209171        7.37736066099502
C            0.71576349358970       23.62808336639333        8.14571047334361
H            0.48129803097382       24.50151341359638        8.76100525604497
H            0.22044532467429       23.75660608288581        7.17704043277976
C            0.18392734233375       22.36381607194314        8.82498174595352
H           -0.90458045700180       22.42334764289646        8.91432519198552
H            0.59992211987495       22.28724307941736        9.83577491890706
C            0.56428806279748       21.11304201905785        8.02642336786604
H            0.10555113758369       21.14365423613253        7.03304442665658
H            0.19689859825776       20.21987311159914        8.53829467519551
C           11.84637001012429       18.70935011869143        0.29341747771576
H           11.98372720408943       19.39743096539338        1.13268016734595
C           12.78733351056195       17.52054351269512        0.45251112140493
H           12.59623493955300       16.79403170446504       -0.34312729291145
H           12.59049432119849       17.02961878004388        1.41027318514398
C           14.24335241164402       17.98743284338331        0.40803770786010
H           14.43713526605859       18.63037750402638        1.27323200084921
H           14.90532457663070       17.11998521222154        0.48180321462176
C           14.53129602988947       18.74966914575660       -0.88666767570952
H           15.55987044534789       19.12139507726890       -0.87173407577371
H           14.43132562694469       18.06963084579177       -1.73939377718539
C           13.56639392414263       19.92418822293964       -1.05861383758450