523
 energy: -743.811418887529 gnorm: 0.000567068226 xtb: 6.5.1 (579679a)
Au          23.39106945355217        9.87224682253820       16.26360731130491
Au          24.65362045430678        8.85164594019502       13.58244941483784
Au          20.98473055586798       11.16787022307783       16.37909506522971
Au          23.28471978882283       12.65001494841372       15.70952410494749
Au          24.29275451998708        6.23829525832257       14.57327938316263
Au          22.90347589979441        7.24334682223135       17.06094784705641
Au          22.24283744811982       10.83027559270595       13.83294324087877
Au          25.60166864938443        8.06682289055901       16.72057267037428
Au          24.02187824017873        9.13193136931658       18.82101564283655
Au          27.29928741302949        9.77845006013233       12.70391474979622
Au          26.23175776435983       10.63311709559881       15.14694371613577
Au          24.81107029592404       11.97676916986799       18.17657156483027
Au          21.23395992291715       11.07697786598125       19.75195883346235
Au          21.96469573109779        7.88045205965510       14.19391056422995
Au          27.10016393146823        6.96518887470214       13.82708718075245
Au          23.89444877952604        9.63494743130770       10.62592902643587
Au          25.05878618481611       11.47532847964787       12.72478014896567
Au          20.18937940819839        8.38834361033109       17.17230712167813
Au          23.32605039993632        6.98890531396933       11.96116573402944
Au          26.19162147807458        6.63666264079863       11.27087450635694
Au          22.91322083081242       10.38865197743679       22.24454367342878
Au          25.87595629452590        4.52030982029635       12.81890066368097
Au          24.31513955355551       14.36597434591512       13.55197997762320
Au          18.55377622465632       12.46856666524811       18.94660385375631
Au          23.83153695041533        3.83952951075438       15.90559262868749
Au          29.38395541346046        6.67224297550947       12.00433678889557
Au          28.06829987745117        4.27228721584240       10.64044649136382
Au          19.83206986246521       12.20437968259075       22.18564167099617
Au          24.62379742600561        4.77133022081959        9.59295708157429
S           27.87600190047710        7.50975643518564       16.09296326630709
S           21.77004901925189       10.25446623429508       11.46596249899095
S           22.70168933907412       12.81707003664439       18.83594543059675
S           19.11170344860104       12.68758774427373       16.69426634355500
S           20.64059192091927        8.70484297261951       19.46626399414704
S           23.67656336188144       15.12015521888848       15.69415235617932
S           24.23530632949785        8.76183126818531       21.21201628571623
S           19.61777155093928        8.11488102876452       14.91401976942147
S           26.94139171900073       11.34690973400390       17.39881832833565
S           22.38489751543307        4.84651400650282       17.43578693487675
S           24.73303701542412       13.53554114059393       11.38968064915544
S           26.12309290206103        8.93047751368467       10.26158346023903
S           22.49307924414476        5.19767296312185       10.48386684000595
S           29.43717808948949        9.03011570415706       11.74185657986303
S           25.17315150134477        2.70638496811243       14.36248172084622
S           21.79432460966919       12.06387835300203       23.45548800026910
S           17.74447621695627       12.39615432932094       21.14607267158113
S           26.76305039837025        4.41301841952401        8.66457772174382
S           29.46768118982521        4.35261791974160       12.54136025005029
C           23.07244344912002        4.46949062071730       19.06715276453419
C           23.14802850550410       14.16440225954268       19.96394255111651
C           18.84419123163618        6.76851934378866       20.07617284806683
H           19.67838660050534        6.23575120826509       20.53704494953855
H           18.81987772332426        6.50496712287692       19.01456679735289
C           24.33153019818136       16.36255560155623       20.11788408168578
H           24.92753191690772       17.09190901168957       19.55544638313402
C           26.95506241171950       13.87047166048505       16.22769294000955
H           25.96056313613567       14.05965396550672       16.64021926297189
H           26.82291176692639       13.38455711501696       15.25619663247858
C           19.22551220093688       12.71989448115043        9.42708123122942
H           18.19064901572925       12.52695399670136        9.11842133460687
C           21.24240949114644       12.96142960854945       11.52710097814788
H           20.62872283958102       12.76711096944129       12.41116431431018
H           22.26581591245614       13.14126110895110       11.86194082742501
C           19.76411615062129       11.49093358159726       10.17147930981525
H           19.71997815983668       10.61143804815461        9.52499680453344
H           19.15311912561100       11.28479157594001       11.05458706943160
C           28.40445755239000        5.88981024698302       16.70590801765227
C           24.50912877915040        4.95503787002458       19.23356848333468
H           24.55486336763346        6.03765057895800       19.08747650886552
H           25.14473218790996        4.49259962314114       18.47278683837790
C           23.99968948776888       15.17965336691904       19.20129934767470
H           23.48001271353298       15.52371242702061       18.30641110052539
H           24.92469841323877       14.69936058171937       18.87003964202027
C           17.22140949833900       14.10587126067800       21.43797916329802
C           22.07679103213730       12.02235033699324        9.37239212177129
H           22.07878487352114       11.14898191867168        8.71440436223983
H           23.10671069931696       12.21506163443392        9.68795071791548
C           27.99086695182457        8.01694989227884        8.54412970593078
H           27.84965232686172        7.03037547102422        8.99528093772486
H           28.72210755972193        8.56054344460157        9.15054451420171
C           16.63021146026238       13.05276034981557       15.66321310530880
H           16.26387000361022       13.24882237477692       16.67548255299989
H           17.01679062853891       13.99158748522434       15.25784177449257
C           21.21126060854907       11.74774659750932       10.60129805588653
C           21.49939293334458        6.00007232803030        9.20226320060673
C           21.28247035305641       11.26953539545056       24.99969890174154
C           17.20011049352158       10.71229460568091       16.29897941266576
H           16.83055601669524       10.89137251088335       17.31340637575230
H           17.99899037518826        9.96904006985303       16.36054966824879
C           28.40085012767195        5.88834077939445       18.23397614673470
H           27.38020186238030        6.03672839276228       18.59890969648508
H           29.01513189490829        6.71413510880072       18.60378412657645
C           25.63113354929717        7.99645085499211        7.71997018095180
H           25.46258863783569        7.01548523613351        8.17341240545997
H           24.68030117912646        8.53727775688356        7.72090704553595
C           26.40749488120956       14.02862604548718       10.91202489066550
C           26.86605046458837       10.15157649899749        7.92130334722755
H           27.60659849691852       10.70138675749945        8.50676153853533
H           25.92723455977620       10.71239243572710        7.93909647821212
C           26.73917039501539        2.76770783784427        7.91631290653403
C           21.44742768497060        7.44302654052117        7.15943186634537
H           22.06775851407442        8.02504325461366        6.46652494278967
C           22.34538892557119        6.81665405876968        8.23130125720632
H           23.09477599432059        6.17338316522977        7.76076848783898
H           22.87311048449256        7.60126428334068        8.78121649833014
C           25.95485347511406        9.21237956784733       21.55027228849194
C           26.32279601386234        1.68942842908092        8.91178974880245
H           25.32290825930139        1.91614938384525        9.29173821657746
H           27.01106287485223        1.68341674183619        9.76254288028630
C           17.75051330967419       12.01030857950209       15.71446673740061
C           17.53042686530788        6.36009803719498       20.75446015657058
H           17.39037136930390        5.27841247226565       20.63790546444491
C           19.05334368352695        8.27626431898502       20.22973793531632
C           20.47516418679774        6.91520237981199        9.87473919488432
H           20.98999312949938        7.70145108956777       10.43588436653138
H           19.87503201656583        6.33682321129815       10.58232523026824
C           25.33238286923552        0.34351460813658        7.05107766822883
H           25.31555882535582       -0.63293911920452        6.55764372412963
H           24.32420552045090        0.55026758297708        7.42407083554620
C           26.66033602305344        8.76926914849003        8.53733889647152
C           15.48959296242201       12.53298441134322       14.77751442170177
H           14.69057371354201       13.28398301072665       14.74558108050578
C           27.42797305198895       13.83580230164926       12.03088442975580
H           27.43804678424614       12.78907626421902       12.34798807426270
H           27.14441625349796       14.44078233378817       12.89730262743143
C           21.91409471729001        1.96723711100203       11.92835545450936
H           21.17206300531346        2.66208057227631       11.51504695792829
C           26.84827589996152        8.44425825261118       20.57558156720404
H           26.60212460088718        8.73453946317807       19.55017539691391
H           26.66544204768131        7.37035046133140       20.67107528382608
C           25.13429165070819       15.86287262960714       21.32397425835989
H           26.07036940027032       15.40674056360679       20.98584957725308
H           25.38553413440079       16.70076024925021       21.98132735795710
C           18.92309359479177        6.44966122025748       14.77448183873858
C           26.19772326342960       10.71023304737592       21.39438920846070
H           25.93191441685316       11.02081253630426       20.38044035542439
H           25.55719951388243       11.26016855035982       22.09013934029425
C           23.96275885574883       13.66251260052833       21.15141120163115
H           23.40061767972068       12.90183713780618       21.69592884462885
H           24.88524826510094       13.20122216388076       20.78880752902535
C           23.01949706069542        2.95251487253568       19.26363447190366
H           21.99486522072513        2.59795821748458       19.12028311658644
H           23.65034645336918        2.46587790208639       18.51311673407140
C           17.59826629793558        6.71082234204024       22.24545965009058
H           18.42376241782552        6.16974057246846       22.71855965668628
H           16.67013540006571        6.41199018656370       22.74192212376447
C           16.06639254891009       10.18610836211838       15.41177876478137
H           15.68438058729363        9.24911965624208       15.83654865493294
C           19.57227085911482        7.54502977438167        8.80807907848648
H           18.84292414335393        8.20186956080751        9.29798216875198
C           19.26675127504162       13.94108507363505       10.35230365846836
H           18.87232758080602       14.81867189627397        9.83111589006506
H           18.64249540314144       13.76426795630903       11.23445987377505
C           21.59138865150372       14.46200619523575        9.55577343307185
H           21.23915236264997       15.35548409105234        9.03165668406757
H           22.62549449077862       14.63647315680081        9.87281913184696
C           27.84810699259724       15.87449153474369       17.42193443812463
H           28.36518648281377       16.83236294653618       17.31099685754854
H           26.85901345436000       16.07291648008438       17.84684274397270
C           30.80085214734892        9.47135938146615       12.84674978748558
C           18.27448158991049       11.75303485996471       14.30065773436213
H           19.07414829724896       11.00694137521648       14.33913371283371
H           18.69490543895623       12.67389102040557       13.88607209225227
C           21.22222489595608        0.90505393222068       12.78939208213541
H           20.50573613051901        0.34023244214724       12.18538341821125
H           20.67122520841578        1.38610452614274       13.60343809377831
C           21.13867309030830       15.08359420222506       14.52738343062043
H           20.94644051579722       14.11879695969604       15.00461900672766
H           21.61871433389873       14.89024795632108       13.56464050206255
C           28.70004887477817        9.24224314242431        6.48065510097598
H           29.07205723708418        9.13827320724807        5.45683935116910
H           29.44324951051476        9.80457727531617        7.05456078435956
C           21.01052070746605       18.01080254510397       14.51888601458531
H           21.21102053526318       18.97366682142022       14.03280057208492
C           19.12116173810087        8.62244897104490       21.71415529528817
H           19.96901428272577        8.10896815560118       22.17689805494540
H           19.28005021855510        9.69878640756675       21.82777130705774
C           24.95966994035182        3.08052678442106       20.83625688520910
H           25.60063356720519        2.58317572663926       20.10162423233974
H           25.32926497202455        2.82291529602489       21.83342859011194
C           23.95527128670861        1.81504468640861       13.36962628298589
C           20.08969463444396       12.98506648528641        8.18857396408432
H           20.05424397486762       12.12054064424390        7.51788677577754
H           19.70274884084693       13.85106843556917        7.64286021373532
C           30.72600052644266        8.75802242867502       14.19561726269932
H           30.72179185590047        7.67612593753794       14.03736481591892
H           29.79733261926252        9.01792586983517       14.71296710922200
C           20.71507502401190       14.19296962590743       10.78285019320312
H           20.75247874288888       15.06116931060165       11.45135490477852
C           27.74150733721899       12.95213842383874       17.15878928044113
C           19.81497216602606       15.82761087103112       14.31636243816719
H           19.15830531096532       15.21558744509920       13.68450333680383
C           22.89713295202524        2.75466246614026       12.79759740392264
H           22.36206088774012        3.25265816495992       13.61244766828449
H           23.38031976167950        3.53261119368951       12.20180060847432
C           21.53583033859782       13.24655366926252        8.62496480821822
H           22.15871615177131       13.43058243446242        7.74098865654530
C           30.78751365582599       10.98245978964978       13.07817646085739
H           30.82715342683954       11.50462739624378       12.11818074714295
H           29.85680743989743       11.26890565272540       13.57811326170632
C           20.76987154676934        4.89118513783657        8.43790981363360
H           20.17597566861105        4.29513383586428        9.13686613504882
H           21.50118092152627        4.22731009402707        7.96741899236331
C           29.12141947817706       12.68770503993639       16.55859094516778
H           29.00516758369391       12.20009732280637       15.58615585743598
H           29.67866670568844       12.01274204092506       17.21387842056705
C           22.07064313020620       15.91838041430106       15.40095307764891
C           21.26580703860403       11.31994947952880       27.93332231606213
H           21.81997252568523       12.24394526999710       28.12546833063567
H           20.98855947578769       10.88634256119178       28.89900590889262
C           22.18389785758286        5.15067419663128       20.10802984004925
H           22.20103282278616        6.23513193226712       19.96029109704973
H           21.15364714677172        4.80800524616507       19.97873641671706
C           28.64338346003614       14.95553986190419       18.35628904244612
H           28.74838475964494       15.43278378495291       19.33847090449165
C           28.31899559280316        8.76382381628570       20.85937419350256
H           28.95114358868052        8.20921510742869       20.15526510307017
C           27.90134537591154       13.62424242855101       18.52320620581765
H           26.91614133665966       13.79662104971710       18.96561157320928
H           28.45771444958689       12.96660352006725       19.19659317995333
C           20.42641696805273        8.36378916362615        7.83374523433660
H           20.95214040214247        9.15590981853543        8.37550297847626
H           19.78895811625397        8.83611762671340        7.08037478707560
C           30.38707223320679        4.35918019179110       16.70397646294817
H           31.41291462155226        4.23130203521547       16.33583484643406
C           22.54327135048320       10.96018550495309       25.80894229448537
H           23.11309493628239       11.87953784675739       25.97113273481957
H           23.17727972027650       10.26789807257024       25.24659222877074
C           33.30210619212534        9.46909063469522       12.98903792792095
H           34.22415060563592        9.18500757715336       12.46688360422529
C           29.83460508482852        5.69485214709024       16.19437681481204
H           30.46357349900219        6.52193488694220       16.53583639068949
H           29.83183060855557        5.70041793129417       15.10108651785010
C           14.94056128435354       11.22506717920546       15.35967085248702
H           14.54829911332087       11.40064162125224       16.36640825963687
H           14.11974351485091       10.85560405161965       14.73741894676301
C           18.83653568270719        6.43784500831925        8.04501333409464
H           18.17858053091750        6.87864590345080        7.28985792998382
H           18.21621217390416        5.85858035687247        8.73621015752152
C           25.75086804637139        2.79389132678079        6.74898790739433
H           24.74856551127099        3.02333692552724        7.12368653813875
H           26.03262085481520        3.58048521341193        6.04314524856979
C           26.79877942933384       13.15909858051290        9.71753103146755
H           26.05585454308661       13.26546309199908        8.92200737711648
H           26.80820325998781       12.11229387847529       10.03308362159066
C           28.95656197780719        4.55112590278748       18.74472229606818
H           28.95225161726486        4.55866795632128       19.84185670897420
C           17.88452642933445        9.00593734966501       19.57689794204504
H           17.83963813022120        8.74924198657877       18.51489209943165
H           18.03399577302066       10.08607608468390       19.65019383458198
C           23.51326350204971        2.60031556705416       20.67249022306058
H           23.47006153633841        1.51237056895558       20.80628728072219
C           20.07314980888940       16.90338844290140       16.55347461713717
H           19.60335731959703       17.06771199816050       17.53174907679342
C           20.50523874081964        9.97913811947419       24.75243771992269
H           21.11922304016601        9.28188350531918       24.17401236383978
H           19.60858693387243       10.19992049192294       24.16616799933034
C           17.42425386499758       16.67177440746324       22.85085731133125
H           18.29121113836340       16.48308233890397       23.49192826891659
H           17.07407658707644       17.68945465767098       23.04824807157698
C           28.49627601725377        7.85763367771727        7.10597220446748
H           29.44990972490528        7.31564270982117        7.11942405982954
C           16.35918423636624        7.10306157981605       20.10277907350801
H           16.29941380290481        6.84611552151616       19.04021233632610
H           15.41833271488341        6.80561877389296       20.57549317222711
C           28.82081057918214       14.23657566176638       11.53326521093714
H           29.54811041184448       14.08914657384391       12.34141131232358
C           16.59964866852682        9.92897587400017       13.99838724839851
H           17.40846638743065        9.19158880077365       14.03865924660325
H           15.80384452286273        9.52843822395133       13.36326074672982
C           28.01288500474142       10.62220766770485       23.10412405475860
H           29.06028557951758       10.85458200111178       23.31937162593905
H           27.39108808064842       11.18240179254683       23.80966547610031
C           17.13532577812499       11.23931792774751       13.41488749687094
H           17.51977826878204       11.05937452648197       12.40327206348311
C           17.70932625712508        6.33113841710114       15.69748180035136
H           16.98670914594511        7.11930946460875       15.46866469640926
H           18.02665093359888        6.46164246891209       16.73694565690728
C           25.01093848504265        4.59964980093045       20.63841564010670
H           26.04487778897694        4.95088787717942       20.74785052631803
C           15.50433808662533       15.81025538855739       20.80372436225434
H           14.63604041986794       16.00481339605863       20.16241782561493
C           26.13655285344657        7.82745260895740        6.28279456160139
H           25.39329181997938        7.26353916589024        5.70546810530451
C           27.53301421734297        4.74264035344352       16.20585600759691
H           27.52469219392690        4.73740782361786       15.11360010195082
H           26.50204862530196        4.88302691376586       16.54498162033478
C           30.39104066197891        4.36299389272728       18.23688731174316
H           30.79734858091024        3.41879745506756       18.61228788886345
H           31.02750728813810        5.17404320504006       18.60448647665196
C           27.70073066005412       15.19725848987772       16.05528833382505
H           27.12520588555612       15.84447011527307       15.38199855650463
C           20.08359781880558       17.17188713507172       13.63151111288935
H           20.55157067717637       17.00819330028543       12.65538903591320
H           19.14041396086086       17.70205407062223       13.46748534661845
C           24.12490711751417        5.27937844930692       21.68692682156152
H           24.17179647415207        6.36694820183647       21.56672822086694
H           24.48397041575986        5.03714327747342       22.69203792227147
C           26.38534388634213       15.50119764933917       10.49668904067726
H           25.64210500211269       15.65046569699548        9.70826495613733
H           26.09668690647818       16.11884866415178       11.35232811574828
C           21.37075383561114        9.03688501442565       26.90317344786801
H           21.99861240058460        8.32785544562286       26.35449567456495
H           21.09656277699757        8.57650175937125       27.85719459227922
C           26.33395479344107        9.21243105563214        5.65569857044965
H           26.68156720150480        9.10930848728531        4.62329548614993
H           25.38196124652911        9.75243962559984        5.63893259720493
C           22.33546354176809       17.26355828039988       14.71926515501941
H           23.01723902088487       17.85906786045176       15.33322238602111
H           22.81838160598736       17.09197572698601       13.75257005457957
C           16.01134633756669       14.38584748534821       20.54485029870257
H           15.22187127849507       13.65799182087294       20.75247637932882
H           16.30029774385452       14.27602123756133       19.49515961974704
C           17.80936501688655        8.22148543799346       22.39813106741546
H           17.86661739966367        8.47850966801203       23.46328581369547
C           27.46637615018101        7.06573824926660        6.29277459489658
H           27.32306712716157        6.07676772626218        6.74257876804019
H           27.82447296836741        6.92443676709632        5.26847041601436
C           26.29346198158563        8.79726370553371       22.98427199714344
H           26.10796984065643        7.72697066100141       23.11232040088236
H           25.64816590980181        9.33625920384914       23.68461909686905
C           22.14546217021218       10.33618741424662       27.15289111055253
H           23.05208167513708       10.11749604636747       27.73020091283258
C           22.61738378345497        3.28117063293279       21.71406234592502
H           22.95546866820686        3.02198174505519       22.72201317382281
H           21.58604939503010        2.93136748357504       21.60387860429214
C           22.28099191125449       -0.04132369764129       13.36805637184831
H           21.79218137397993       -0.80114603099508       13.99010629028707
C           21.39791455133560       16.15626482149363       16.75512403007233
H           22.05533328094770       16.75209966897064       17.39384025521260
H           21.21707119376928       15.19601982065080       17.24740640384675
C           17.06222636840060        4.95240448427296       15.51497024629181
H           16.19171219585977        4.87455414064365       16.17800850994039
C           27.77847381374210       15.90813502258809        9.99664726123121
H           27.75893867327741       16.96355687418578        9.69833895560167
C           31.93083843921869       10.65350772651030       15.28979787379439
H           32.78618953704411       10.94178603077520       15.90845534004572
H           31.02014409924947       10.93415173810727       15.82377879516349
C           16.81843431354829       14.24053546397877       22.90766965986091
H           17.68228160005219       14.02742179950499       23.54494805903603
H           16.03843137111860       13.51165857529631       23.14559651900172
C           24.70805474663084        1.13642531482886       12.22512999546971
H           25.20459019901465        1.90181215457021       11.62192326150250
H           25.48071502449732        0.47630597361733       12.62911453392083
C           28.16462422958852       15.04249172690308        8.79140425436861
H           29.15068771131225       15.33897878743389        8.42075959280514
H           27.44264880532391       15.18715264525878        7.98162361173641
C           31.99460371868984       11.37680816412086       13.94014440828425
H           31.97856106912482       12.46176982395705       14.10420951216237
C           18.32904843120046       15.10853934216590       21.12369337746846
H           18.64349206422740       15.00010396949544       20.08113821621074
H           19.19687868756087       14.90294480316049       21.75669235067745
C           16.01728916261729       12.28534332883012       13.35945165756833
H           16.40210081618596       13.21853145426925       12.93552967578107
H           15.20632299400703       11.93145247434191       12.71562690307680
C           28.18674776990777       13.56884077958746        9.21230511042442
H           28.45758240771045       12.94590529953357        8.35085021704892
C           22.20230385108619       15.99494794755551       21.37607700887084
H           21.27214943596656       16.46250424918110       21.72289103803265
C           23.03521904819038       17.02249952590662       20.60124173514024
H           22.46391217598527       17.39343470254795       19.74435079145908
H           23.26891028417460       17.87568431420535       21.24529234266133
C           28.14565043570863        2.46966912843978        7.39419943860173
H           28.85341400069180        2.46643305648730        8.22896336746877
H           28.45444859343755        3.25272597315816        6.69578620678739
C           29.08668179627747       14.93329297967158       15.45779717512098
H           28.98467199172638       14.45716251053283       14.47861356928965
H           29.62141090449513       15.87773312608332       15.31922751026761
C           28.08138586023241        3.40388634011810       16.70559162485442
H           27.43906485041668        2.59703705519519       16.33014781295206
C           19.14271131153422       16.06741841660861       15.67144708815320
H           18.94189855873980       15.10669974528677       16.15601020891802
H           18.18851891303491       16.58485405985085       15.53183236899511
C           19.93137365568035        5.35917868516083       15.12766419856186
H           20.26354040909389        5.47716523685132       16.16270709549890
H           20.81185051538134        5.44662611988499       14.48457852306733
C           26.32508981908894        0.32220627886002        8.21890037400212
H           26.02589055848060       -0.44764365392982        8.94110192033343
C           18.48426846573941        6.28105182765950       13.31856440745366
H           17.77928609623707        7.07194788274559       13.04849497878327
H           19.35739895573274        6.37231042523819       12.66660447442149
C           32.09496300353200        9.07351692128504       12.13085638677148
H           32.14176673629680        9.56769036492173       11.15628975878977