282
 energy: -426.990705495954 gnorm: 0.000159231911 xtb: 6.5.1 (579679a)
Au           2.80007026687939        6.97128392628639       20.39762780145440
Au           4.63833438459202        5.36775592465122       23.05543253172989
Au           4.87710918863621        7.33841737492818       17.43417922845445
Au           3.62323634862331        4.08164476120681       20.41861726599056
Au           5.70075216946866        5.70661128412981       20.25230399194840
Au           4.97310455797092        4.44836148686523       17.91334796325992
Au           7.94894262649885        5.42448919046067       17.39852860336104
Au           6.91558723796638        3.05470279000962       21.29739596267830
Au           9.50353090006356        4.50977131463694       20.82500711686113
Au           2.90559302787607        0.48742550457313       20.12979096836091
Au           5.19376626020329        1.88554742284321       19.29408963576406
Au           7.75439379699568        2.89554660382214       18.65332133416986
Au          10.24288072377402        3.91079306930862       17.90971967776111
Au           8.41904319134818        3.14710242914348       15.85562825728316
Au           5.99277345610937        1.41547098936591       16.29160825746223
Au           7.43890187233280        0.49786889929282       20.33832897857944
Au          10.24234442286626        1.21130525326495       19.47941885915055
Au           5.80950922321047       -0.82154667202962       18.01176135409010
Au           8.33297678627948        0.12563578627429       17.38735373466706
Au          10.79173636425241        1.22765192262770       16.66014453917638
Au          13.37335193341109        2.22285181604650       16.43208343060764
Au          10.60036381932533       -1.22429808894242       18.21800113185410
Au           6.72185403759338       -1.10763072173055       15.36304225376622
Au           7.98777286675780       -2.76169075072765       18.76726427735951
Au           9.49069279845650        0.10157645460430       14.34154462087925
Au          12.02397519960499       -0.98228884664440       15.14374628862544
Au           9.81876152547856       -2.39296079685255       15.52287747184647
Au           8.74789853093958       -1.91903662238722       12.36039961715361
Au          12.34474755426312       -3.71228568105634       16.61426044554437
Au          11.55693443269678       -3.20309131308427       13.10502611357057
S            2.82219312889339        6.83247018655770       22.74806314380450
C            3.32977410711690        8.46661075475262       23.35090717225855
C            4.61576584772925        8.94601520701840       22.68503425550448
H            5.42747232316053        8.24787395161059       22.88642270597693
H            4.48180077299398        9.01622021881470       21.60579245195313
H            4.89608300361903        9.92887888641305       23.06750915587217
C            3.52914537783332        8.35070795973431       24.86096335473978
H            4.35237480494004        7.67154041353072       25.08073730067908
H            3.75853357435258        9.32863881173059       25.28717829933981
H            2.62571059483111        7.96494052128139       25.33188975121254
C            2.18594132569533        9.43127186708498       23.04170773706471
H            1.25651833168517        9.06625007240498       23.47730101386255
H            2.40376950642672       10.41858081241114       23.45205302315716
H            2.05176673781062        9.52216360605920       21.96398060383038
S            2.62682919813539        6.99059740384945       18.05435442506263
C            1.69032257484876        8.46261390234412       17.55319973116303
C            2.27334113329746        9.73272072215934       18.16507467818829
H            2.25108886066280        9.67453831502077       19.25336606744838
H            3.30765335656365        9.86575102609363       17.84864227862301
H            1.69550555590971       10.60316495335484       17.84943914593149
C            0.25071537841350        8.25825462766913       18.02102631653997
H            0.21195992102569        8.20792589072749       19.10893643940710
H           -0.37671593964459        9.08576500477634       17.68590490616697
H           -0.14782289550441        7.32830507798893       17.61666991496691
C            1.74690075358339        8.53441971143365       16.02844085952451
H            1.36359252801151        7.61239326986271       15.59261137525130
H            1.14649960498138        9.37072737838554       15.66665022449165
H            2.77559764838353        8.67272729346039       15.69625823102285
S            6.39210355816040        3.89499509949168       23.55100315685133
C            5.62265520693287        2.51252816314404       24.44110382231665
C            6.72097540860954        1.48148538991775       24.69128165161774
H            7.56484088113198        1.94040924377342       25.20504010097021
H            6.33980205902388        0.66140129402226       25.30177023316164
H            7.06967335886540        1.07647910617282       23.74224115387934
C            4.48351192846017        1.87021847681660       23.65542349564297
H            3.69142542580045        2.59196625939412       23.45880060629654
H            4.84724501238685        1.49304288523128       22.70013809535609
H            4.06222227821299        1.03621049594156       24.21935964620058
C            5.10262155685336        3.05817136540169       25.77016104731775
H            5.90554234382738        3.55518264760609       26.31335224503915
H            4.30461058827758        3.77885626765170       25.59415620763584
H            4.71141206844578        2.24547368474219       26.38439617372646
S            7.10397539832356        7.64447386038997       16.75607780505694
C            7.09687066730938        7.72860570893657       14.94300242171243
C            8.53237823279313        7.49223670863407       14.47604807487624
H            8.84533905805580        6.47915295776313       14.72816551632142
H            8.60585112599071        7.62096864606420       13.39492798604897
H            9.21029216701676        8.19362452479476       14.96155454370957
C            6.64639541868635        9.14004948422325       14.56506890826476
H            7.29152235193552        9.87965582910641       15.03816975285758
H            6.68972031069324        9.27430026395270       13.48289283666494
H            5.62273214862681        9.30883562305518       14.89863433701085
C            6.16488849488366        6.69673290502644       14.31675967689710
H            6.42937398710224        5.68840112774129       14.63491047009655
H            5.13369554963768        6.88500854532922       14.61557522934229
H            6.22470166124999        6.74785996074309       13.22813360416050
S            2.02943276466813        2.37228093468360       21.19949635196816
C            0.46032469163161        2.76637212046618       20.38126285792339
C           -0.51095722859577        1.61894360324412       20.65581093228658
H           -0.59887652116282        1.44817928161981       21.72812062783125
H           -1.49795095422510        1.85453424888501       20.25423589010209
H           -0.15183444995666        0.70276005373794       20.18720082340413
C            0.63635754835983        2.95829154731262       18.87810576690616
H            1.01396471747512        2.04280237714610       18.42339712875523
H           -0.31865745506023        3.21121691474750       18.41444224933059
H            1.34445576288078        3.76189424525904       18.67754431548011
C           -0.05441499426807        4.05522405469191       21.02002308427823
H           -0.12595173155313        3.93935661202736       22.10090586756622
H            0.62745533841843        4.87807700885850       20.80575968690481
H           -1.03976265624385        4.30706875881564       20.62482651009744
S            8.12355437805474        6.25646409091488       20.05300822854092
C            8.63707053048498        7.87495614481626       20.69291875421824
C            7.68895591351271        8.91371621369032       20.09951907782512
H            7.73691047617133        8.89004659098801       19.01015712069166
H            6.66302740674046        8.70627318718527       20.40342551729847
H            7.96061135760485        9.91341372649640       20.44239999918741
C            8.55434339295734        7.86920027118245       22.21647156463500
H            7.54495103349330        7.61502900124855       22.53943722739124
H            9.24275562637071        7.13236302530584       22.62986151062314
H            8.81217348191106        8.85247839580324       22.61350291110833
C           10.06773469847116        8.14300865935469       20.23328457824491
H           10.12282247398608        8.12175636754157       19.14539394819012
H           10.39742493174030        9.12327476842219       20.58146665445478
H           10.74266090755701        7.38549144918640       20.63077989504829
S           11.03954875241668        2.80061301874273       21.21039720150509
C           10.91773628490757        2.12143034833156       22.89154917809068
C           10.06494611250618        0.85924855178275       22.92161753866868
H           10.47158978275109        0.10119739095441       22.25355044403612
H           10.03008230934906        0.45156334860623       23.93333812604109
H            9.04917225596922        1.08626249453772       22.60314836775656
C           12.35945991252762        1.78388004770552       23.27793264905040
H           12.97599115800401        2.68113094834478       23.24487904660356
H           12.39238384927967        1.36823197265265       24.28635254797393
H           12.77133299495693        1.05332844997061       22.58268978859558
C           10.34454071958865        3.16447345301813       23.84743315436245
H           10.91518963201167        4.09044562001635       23.79030898208572
H            9.30516444720554        3.37931491053341       23.59970984925153
H           10.38487918204156        2.79200385247765       24.87269986738401
S            3.86180601852279       -1.50783786258512       19.37139107685639
C            2.68332331611139       -2.18643428983560       18.17144943447757
C            2.34907532620957       -1.18017221156059       17.07528444854045
H            3.25314478022796       -0.89416974166532       16.53903449615874
H            1.64506315672397       -1.61538457892140       16.36408943004886
H            1.90347787147695       -0.28324528259575       17.50495455993716
C            3.33531170613296       -3.42604763629208       17.56195946842255
H            3.63382826935698       -4.12078651689498       18.34621164727619
H            2.63830044104432       -3.92952528897623       16.89039133388178
H            4.22117092881617       -3.14065702611972       16.99548027148662
C            1.41863510961410       -2.57582341855426       18.93511275819520
H            1.66474957734935       -3.25425506220056       19.75110547558208
H            0.94408476990420       -1.68825152196157       19.35319719825565
H            0.71113862173589       -3.06973183342010       18.26702890774638
S            5.10570364517874        3.58646263440108       15.62866236605739
C            3.42491566115874        3.33160194645720       14.99766613894330
C            3.57280037886201        2.96495433255299       13.52113550011680
H            4.11029024181535        3.75053335253837       12.99120143153455
H            4.13236945762517        2.03554285068774       13.42160654802808
H            2.59153515028109        2.83523255482553       13.06153350933369
C            2.71131998229690        2.21404063046281       15.74933253247191
H            2.69528706616221        2.42883119366917       16.81677956425538
H            1.68479817214991        2.10904099308900       15.39411148985131
H            3.23166809589776        1.26930779178457       15.59645280154128
C            2.65198609941070        4.64023476823212       15.14600949473036
H            3.18858841876940        5.45440693238963       14.65991198744973
H            1.66506424310512        4.54928934653074       14.68878018840690
H            2.52605153007670        4.89102259205479       16.19950808840863
S            8.35384532466421       -1.75796501200697       20.85358833523344
C            7.36915748241986       -2.60352079801551       22.12444727075023
C            5.90211792850166       -2.19176703491070       22.06856625676381
H            5.80638779783076       -1.11242981311425       22.18664815051197
H            5.45773360636451       -2.47328852575321       21.11417549212099
H            5.34392638043216       -2.67983806199954       22.86947055881700
C            7.98045365200495       -2.19449342891310       23.46444638502091
H            7.88712845987927       -1.11893721838902       23.60631122899012
H            7.46715304764593       -2.70037021990980       24.28379498016665
H            9.03696720576083       -2.45868008451618       23.49353934148174
C            7.50472499214226       -4.11159460137336       21.92684437768735
H            8.55510997203943       -4.40072272295400       21.91790745495567
H            7.00114459075665       -4.64362960979991       22.73582613907455
H            7.05434791599239       -4.41007965616507       20.98049601894185
S           12.70991138329491        4.00301331297607       17.79984124202642
C           13.05070886489746        5.49777668200412       16.83290056270217
C           14.56574910392397        5.60465794768226       16.66700734954017
H           14.93820160465050        4.77147397444173       16.07138122102592
H           14.82551237968204        6.53805818194568       16.16488237617808
H           15.05404117442765        5.58063827784118       17.64040658766232
C           12.37196794399055        5.45792981985487       15.46745324488240
H           12.72892198902398        4.60574785334456       14.88949342547917
H           11.29298736694134        5.36652456879770       15.58672000931548
H           12.58521919998566        6.37267870139462       14.91186589555952
C           12.52425604515202        6.68067014656876       17.64317161209393
H           12.95282035827333        6.67446728495654       18.64462140186893
H           12.78280585716838        7.62081096645206       17.15361225176452
H           11.43983752864498        6.61920218409128       17.72949370292202
S            8.18265696257546        2.06013215461270       13.68750222723156
C            9.08704250724063        3.03211081744808       12.45285532508291
C            9.57919891525334        2.09004422097584       11.35679174856821
H            8.74553765071365        1.52611353070825       10.93948968065336
H           10.05393758033640        2.65835020380046       10.55495262691104
H           10.30414948052718        1.38394695750736       11.76097824456428
C           10.26373482016795        3.77372242019526       13.07632353744257
H            9.90548835265091        4.49428614081380       13.81058712870944
H           10.92765962640923        3.07250951069541       13.57946233202250
H           10.82847462707390        4.30783302897999       12.31033709698657
C            8.07836001369644        4.02865665265756       11.88095992893956
H            7.22708795641665        3.49828636684460       11.45569723479838
H            7.71638423838776        4.68768061426893       12.66902880981820
H            8.54340753882078        4.63473913977512       11.10165207166168
S            7.78747558484157       -3.42121755615488       16.51411490889401
C            7.67155969878617       -5.20623448043846       16.19604998314280
C            7.66197194735728       -5.38042308014652       14.67892704050332
H            6.86543909606127       -4.78548003462262       14.23076602315681
H            8.61276704052976       -5.05302706724952       14.25794425470975
H            7.50833542630777       -6.42940692534795       14.42065198359076
C            6.36452824676604       -5.70984657709098       16.80271447613133
H            5.51942760381204       -5.17995641367370       16.36490532338201
H            6.24620349243496       -6.77738894988424       16.60968661121150
H            6.35869208702869       -5.54569723174819       17.88005100376365
C            8.86450381132258       -5.93233574078041       16.80846102358532
H            8.88630777182948       -5.78538140072970       17.88790314338543
H            8.80026331442160       -7.00215149922517       16.60237727913770
H            9.79561513122337       -5.55369310953835       16.38632363875956
S           14.13407906486826        0.29805070971891       15.33664597297647
C           14.53508798280933        0.79243583996321       13.63814172868705
C           13.32704472816962        1.36326740075079       12.90185122307353
H           12.93179796816604        2.22509316715511       13.43803027263059
H           13.61216709390454        1.67646133796716       11.89594830852278
H           12.53966596068306        0.61382308320297       12.81930428290774
C           15.03131179589862       -0.46527049478797       12.92623669040356
H           15.86219788610131       -0.90771381862937       13.47462003771020
H           14.22769548311908       -1.19819685035638       12.86124560789432
H           15.36378903134442       -0.22240386791750       11.91568845694450
C           15.65047150491248        1.83475967031853       13.70427614445371
H           16.49389704808944        1.44949693865463       14.27595216258835
H           15.99194707716796        2.08799710156401       12.69914511198123
H           15.28811859932004        2.74123947324130       14.18914783318971
S            6.57435043084736       -2.27578757489316       13.19417940467346
C            5.42803106026481       -1.33020085057617       12.15307935418803
C            5.94081070210450        0.07374340054191       11.84966928347180
H            6.13950591373885        0.62304791550766       12.76991364334877
H            6.86816825595189        0.02535368227325       11.27891663273914
H            5.20238400659090        0.62558228390821       11.26532429794866
C            5.25044889191165       -2.11701038420162       10.85423688920131
H            4.91266146443031       -3.12976659975993       11.07162100904684
H            4.51391838022386       -1.62900487829637       10.21363527338206
H            6.19752660175285       -2.17494018060918       10.31822048078969
C            4.10071063618596       -1.25193442846117       12.90634447209279
H            3.75797516642827       -2.25024732936943       13.17667976289968
H            4.22199451035445       -0.66925849520354       13.81950357141634
H            3.34073874070378       -0.77369603060354       12.28622052789968
S           10.95667352486461       -1.43597961291520       11.66238061675160
C           11.19374407660276       -1.94518171362404        9.93423977158248
C           10.48652537929640       -0.90771436342913        9.06359207317985
H           10.87474252963865        0.08836142977359        9.27380437014597
H           10.64528480009646       -1.13006637459516        8.00709350499152
H            9.41586196554752       -0.91312766480387        9.26624551764667
C           10.62824859985813       -3.33548157782613        9.66569990088076
H            9.55844083819275       -3.35680914139953        9.87199061800932
H           10.78896287573699       -3.61091586619239        8.62195152364746
H           11.11703977349875       -4.07415150506715       10.30065096165862
C           12.69908005568583       -1.92336083502411        9.67208103082280
H           13.10777190636617       -0.94068807654654        9.90619706175836
H           13.20003645996335       -2.66425619404019       10.29484849371669
H           12.90406568006613       -2.14878403079029        8.62424507707905
S           12.58608619876257       -2.59191341089009       18.65247396442487
C           12.24852557589537       -3.73794669817688       20.01918160370915
C           11.85304050988661       -2.89703331603980       21.23245469469430
H           10.89416280376958       -2.40695793486673       21.05862634021255
H           11.76248665992960       -3.53077416371041       22.11639234477635
H           12.60447228323392       -2.13174780856153       21.42404840137849
C           13.56010416654418       -4.47559532526521       20.29266041485353
H           13.84483220880904       -5.07185180972820       19.42619491819747
H           14.35562846037566       -3.76050781260299       20.49862411598029
H           13.44857336581931       -5.13687277296007       21.15354798608442
C           11.14678775062086       -4.73796920443993       19.68878147701738
H           11.43175865493272       -5.35394930781470       18.83629330560473
H           10.95874266386381       -5.38882270445752       20.54442204611936
H           10.22287369418633       -4.21577930892708       19.44283723417700
C           13.84451362723478       -5.43531901325219       14.15877074656626
S           12.15629998571951       -4.93439801267519       14.60110238734636
C           14.80276495809724       -4.24910633973726       14.12334075082803
H           14.47596311505368       -3.52144691249357       13.38125791898501
H           14.83786761651392       -3.75759976744244       15.09508644337172
H           15.80818667757458       -4.58492511447484       13.86388775903718
C           13.77092539730806       -6.09484002746633       12.78264629638889
H           13.45747570125770       -5.36802817479207       12.03348059391294
H           14.74846576109223       -6.48919915584984       12.50054149044383
H           13.05153361513770       -6.91291802407230       12.79437911288042
C           14.29777612078245       -6.45061594639765       15.20635373326109
H           14.36095979948740       -5.97782349908825       16.18602270298273
H           13.58775058281814       -7.27489209826192       15.26421205385564
H           15.27966717460093       -6.84881262923643       14.94568959676707
