498
 energy: -714.782337720026 gnorm: 0.000591400343 xtb: 6.5.1 (579679a)
Au          31.00354402753172       15.49531530482405       14.66832309473124
Au          28.88306108578525       17.55756211654071       14.93400837479225
Au          30.19866703275040       19.94312708760906       18.76624178628018
Au          31.99953873387850       12.82375634269382       15.35745515228697
Au          28.34900789622275       20.43708792271190       15.47778552558592
C           25.61323372598472       18.62768877470870       15.05585174802176
C           24.72818909536256       17.68889748249649       14.23270307550818
H           25.28290013937064       16.77387422597156       14.00628748418393
H           24.45980581571639       18.16666492917670       13.28635276172890
C           26.00170390442111       17.93096806690146       16.35942461751486
H           26.65544654551583       18.57763863046441       16.95114469283928
H           26.55520471299460       17.01542339738376       16.13252550675250
C           24.83385901964872       19.90562144712036       15.37681777303526
H           24.55987150765546       20.41350323029130       14.44797977952015
H           25.46726386803683       20.58589191115823       15.95346550936281
C           23.57516860468450       19.55405132999222       16.18051622759507
H           23.02682197290844       20.47667768650605       16.40779408080393
C           23.97396950507914       18.86019268677742       17.48797348793308
H           23.08021708391223       18.62047315648397       18.07203258126725
H           24.59984836434878       19.52656903114949       18.09035369212471
C           22.68637306480645       18.61819330912459       15.35297554554239
H           21.77972271146198       18.37220764724324       15.91428974519502
H           22.38462762062560       19.11464861277187       14.42552775929257
C           23.46573540768210       17.33836993990651       15.03030987084959
H           22.83905846256086       16.66779433215454       14.42928105005632
C           23.86529615885325       16.63545400851793       16.33267075721691
H           22.97145915421965       16.36183553079729       16.90145216516169
H           24.41611828152983       15.71649493614541       16.10699947858898
C           24.74532428481747       17.57786321904288       17.16038501639792
H           25.04385508474567       17.07850431502824       18.09099251952240
C           30.50449563406450       11.11091902672812       12.85770697482681
C           31.61040609141849       10.07802764950973       13.07868266508576
H           31.25601865226980        9.29257806036858       13.75255329429248
H           32.47042511796791       10.55985074608230       13.55412377777588
C           29.29966767758200       10.42671696503912       12.20857137915330
H           28.92440287918595        9.63832560213332       12.86724434358678
H           28.49609007411079       11.15500267024063       12.07004244294717
C           31.01663612246358       12.21956577812985       11.94195196568714
H           30.23410084464208       12.96916099505825       11.78847275674511
H           31.86316519062212       12.72383574934210       12.41441063984797
C           32.03039181975245        9.47821792344870       11.73214727458773
H           32.82373292130494        8.73920731078750       11.90027778176818
C           30.82322234615818        8.79731803192577       11.07606348661656
H           30.45476199253821        7.99122465961392       11.71811033422010
H           31.11902660685447        8.35769512032939       10.11871774879118
C           29.71691107047118        9.83591503646962       10.85556968918436
H           28.84749521071662        9.35353385362359       10.39201253524718
C           30.23160285374215       10.95280494061414        9.93925966865639
H           29.44159095798459       11.69172700091503        9.77029623485308
H           30.51574693736650       10.53718401422851        8.96780637667656
C           31.44187915143238       11.62471547567723       10.59673143386938
H           31.81782725055129       12.43025707006771        9.95332341214509
C           32.55005602750466       10.59037791551538       10.81640007087727
H           32.86566366602399       10.17011050333100        9.85663320195739
H           33.41960756338522       11.07403445614764       11.27233432313874
C           28.18194630561497       22.43523628865321       18.15428852491182
C           27.11551087990345       21.45034805313825       18.62528282882245
H           27.57188104974159       20.68946373164352       19.26409772247613
H           26.68192811703428       20.93595731166884       17.76327973238118
C           28.80282622903929       23.13264027413252       19.36516292622919
H           29.58294154409196       23.82451705862990       19.03465045853176
H           29.27032881992322       22.38780684267987       20.01622149122311
C           27.53906036054048       23.47737450978385       17.23776709461330
H           27.11116131307289       22.98021468539678       16.36204533719065
H           28.29832733767154       24.18148277458625       16.88666850577507
C           26.02288377431920       22.19675225478545       19.39677392024306
H           25.26539106793189       21.47728488502298       19.73255831467212
C           26.64275167927040       22.89570392163989       20.61191442169028
H           25.86720089540403       23.42436924897050       21.17437674932709
H           27.09397947311602       22.15388202686285       21.27833145444821
C           27.71050043558380       23.88681442690313       20.13462872470897
H           28.16129246900458       24.38614275519796       21.00103077851989
C           27.06612738450968       24.93258669675872       19.21726320643778
H           26.29552614663562       25.48370155080503       19.76481357151667
H           27.82109944349545       25.65091521176443       18.88280716359657
C           26.44395101142347       24.22807676706337       18.00590224007803
H           25.98733971420387       24.97322944751566       17.34313795088317
C           25.37402398467103       23.23614605400805       18.47635177973536
H           24.92214837443072       22.73735797678428       17.61296781474534
H           24.58131311213089       23.76728157694888       19.01185080938242
S           27.04846188148466       19.06844485996722       14.03287799850850
S           29.99731789996996       11.74331713709188       14.47329870672123
S           29.50409473199846       21.61062116873337       17.23001839673381
Au          30.87225752433339       17.60708798460878       16.91079200290433
Au          31.13822786650465       19.72929654176348       14.85028202342095
Au          34.96994601634763       18.41238187945375       12.46315291792179
Au          31.56003323989511       16.61025828809340       19.58313596788027
Au          31.68153225739684       20.26104201736561       11.97014080125846
C           31.25954320641889       22.99780473479344       13.77872479586705
C           30.43610387709711       23.88238130887699       14.71771285472749
H           30.20982004160956       23.32733861292509       15.63256560080333
H           29.48968700258678       24.15064049033539       14.24000481901074
C           32.56314260099192       22.60943433319120       14.47542525923918
H           33.15503693752038       21.95601153553227       13.82858649007446
H           32.33631988190495       22.05560975729630       15.39079768522300
C           31.58042190503177       23.77771590500999       12.50106845258072
H           30.65159872363736       24.05164757505385       11.99313396639553
H           32.15738814594427       23.14475855320526       11.82065977507425
C           32.38375544987480       25.03652512013566       12.85305493153276
H           32.61098267877733       25.58522939116477       11.93062694051579
C           33.69125541043323       24.63778513337750       13.54686162233612
H           34.27508804996373       25.53159168184491       13.78692781247329
H           34.29379801977999       24.01227836676095       12.88027993822528
C           31.55579554565809       25.92477943148851       13.78904599396725
H           32.11671845384734       26.83160607372305       14.03527100001440
H           30.62827691885981       26.22626908860617       13.29255711616130
C           31.23334679659169       25.14495563057636       15.06864192541417
H           30.63211282990579       25.77126311204833       15.73938073860316
C           32.53581211529060       24.74555480417574       15.77146856721241
H           33.10440385595119       25.63947805996306       16.04520433993871
H           32.31029936116801       24.19453578233673       16.69034630043319
C           33.36377372671359       23.86592020934450       14.82890988859576
H           34.29441114684315       23.56745470292163       15.32825021299666
C           29.06136959164410       18.10609259678893       21.29609913519842
C           29.28270782890681       17.00039843938721       22.32916026979746
H           29.95643359536564       17.35512020914273       23.11458667449130
H           29.75843832742736       16.14046354324957       21.84746769752952
C           28.41181437845519       19.31081364225174       21.98007129381336
H           29.07034098627327       19.68645618776545       22.76840773910222
H           28.27299708103123       20.11422470347255       21.25165698475984
C           28.14588982495327       17.59346555802292       20.18745528727795
H           27.99225450435231       18.37582445162614       19.43770174446966
H           28.61866347520399       16.74698380651538       19.68338487180961
C           27.93627234197712       16.58009026154755       22.92896090483144
H           28.10461125802563       15.78691903319721       23.66810029724468
C           27.27970491001788       17.78711213434308       23.60966313471135
H           27.92153407064836       18.15587446711870       24.41578993864196
H           26.32239892759110       17.49105040878235       24.04920167519153
C           27.05893791552807       18.89321003548439       22.57089899460206
H           26.59506590744770       19.76254074770307       23.05313723301220
C           26.14283148051055       18.37801892009552       21.45407156306721
H           25.97354743477236       19.16786025543783       20.71504267945534
H           25.17150268967140       18.09353955225793       21.86975680571565
C           26.80078030758566       17.16791685372437       20.78231116018832
H           26.15755495126530       16.79165853559024       19.97677092585983
C           27.02079871006383       16.05995111826027       21.81679768355462
H           26.06112801518766       15.74399656480962       22.23701639996207
H           27.47712332251540       15.19053314559325       21.33327411593304
C           34.35888081029861       20.42938332478591        9.97075045517169
C           34.82997535803396       21.49551877742272       10.95589238473675
H           35.46865398159167       21.03889365914345       11.71673085143096
H           33.96803433426265       21.92916704612454       11.47032694599620
C           35.56966919413973       19.80834896940351        9.27335168493282
H           35.23904206412875       19.02843196943268        8.58130629514376
H           36.22059596256621       19.34059334214294       10.01814003381663
C           33.44249148125232       21.07252667640415        8.92867617830526
H           32.56683400555799       21.50053001654582        9.42583930666714
H           33.09126631395217       20.31340394479283        8.22447293195017
C           35.60166596052762       22.58817203183330       10.20977352802850
H           35.93751092424514       23.34544859258719       10.92943672147497
C           36.81671548245919       21.96823575319003        9.51074546730795
H           37.37923294917203       22.74385336587034        8.98223859652075
H           37.48308118634443       21.51682047177674       10.25250143246148
C           36.33932890401264       20.90072023278622        8.51942427228991
H           37.20568778582145       20.44988485034826        8.02006385045683
C           35.42211159143279       21.54541652577086        7.47371664989337
H           35.96979409549233       22.31605325376645        6.92278369736200
H           35.08758376944854       20.79064237354565        6.75521108333293
C           34.21082564336417       22.16767481565188        8.17827236461625
H           33.54813732549593       22.62451688294923        7.43319896283573
C           34.68135717535986       23.23732181787274        9.17047462298599
H           33.81802121360212       23.68921606649478        9.66932996362096
H           35.21702348894430       24.03005605923014        8.63955018964457
S           30.23702185764722       21.56232104581424       13.33769732538612
S           30.67668856231890       18.61390385683425       20.66353151036605
S           33.43407387829359       19.10748136394671       10.79517658342606
Au          33.11412931394086       17.73866352730733       14.79999824122616
Au          31.05513376830200       17.47252447713399       12.67767937002272
Au          28.66777794003323       13.63947072300488       13.99281761906202
Au          35.78710307776970       17.04925981425789       15.79724235244212
Au          28.17439436934707       16.92885799031114       12.14536380707293
C           29.98294315848786       17.35067018333711        9.40917123417886
C           30.92174326431249       18.17380794115834        8.52412619360128
H           31.83684091203527       18.40009345685958        9.07877682716675
H           30.44405787703515       19.12024250440804        8.25588471704594
C           30.67952894654758       16.04695424269491        9.79744445944425
H           30.03283900459835       15.45529028061608       10.45122104973283
H           31.59519359711878       16.27365953188400       10.35084174892865
C           28.70487385274068       17.03001097688581        8.62987593532681
H           28.19705976760497       17.95893578682029        8.35605500310793
H           28.02458245478888       16.45333362814315        9.26323164316389
C           29.05616691373093       16.22643204034473        7.37103624640509
H           28.13345258181692       15.99939057223582        6.82273241171523
C           29.74980380502952       14.91880639236318        7.76965739218776
H           29.98925355944705       14.33475188158952        6.87583035374759
H           29.08336893601827       14.31654725158563        8.39559308696608
C           29.99209380669935       17.05390224071857        6.48224674567066
H           30.23793821671577       16.49259510895176        5.57555413100753
H           29.49576579029446       17.98144239048287        6.18057805811143
C           31.27202489501594       17.37629145532983        7.26154862961155
H           31.94263313484424       17.97729444675211        6.63488476207358
C           31.97474379402306       16.07375807013748        7.66088597552976
H           32.24820937803586       15.50507316896683        6.76694237979259
H           32.89377423657171       16.29920761547092        8.21167765756271
C           31.03228704125839       15.24608088967885        8.54090022646294
H           31.53151365877713       14.31534172781513        8.83924042711169
C           37.49888577829334       19.54965488624855       14.30130692048854
C           38.53129193073276       19.32846817798466       15.40761028450383
H           39.31650458037993       18.65408404595877       15.05367607123747
H           38.04896822130321       18.85351873297301       16.26760281269398
C           38.18383615758804       20.19797154890039       13.09648907878744
H           38.97196378368067       19.53869234224069       12.72173316681102
H           37.45592088162500       20.33664392144141       12.29260244805280
C           36.39051315427366       20.46615815543302       14.81270951976316
H           35.64133174000818       20.61975809085581       14.02980852620137
H           35.88558574623821       19.99433928869526       15.65917961685342
C           39.13161105148197       20.67484268268518       15.82736219764903
H           39.87025098950141       20.50659606772210       16.62101665164402
C           39.81332289432895       21.33014467166257       14.62021947454726
H           40.61925043037699       20.68756092362389       14.25233815240292
H           40.25328708296203       22.28739466166878       14.91582578731075
C           38.77524632643775       21.55077536663965       13.51344591545307
H           39.25819251401659       22.01374435694579       12.64402970722910
C           37.65869069772373       22.46787844012208       14.02743893088719
H           36.92013848261978       22.63706848385090       13.23713375023399
H           38.07480668226776       23.43915000280574       14.31147755221972
C           36.98594365965675       21.81121763848150       15.23768325946489
H           36.18060186991880       22.45520444854967       15.61305664155479
C           38.01976393590844       21.59138022970572       16.34629072060837
H           38.44038634642131       22.55103130890135       16.66176097648988
H           37.53553315267258       21.13602318707954       17.21580232954058
C           26.17491561057414       14.25239486699950       11.97819106284084
C           27.15968579438173       13.78141461863594       10.91165826460871
H           27.92071999138189       13.14272611936762       11.36795449951188
H           27.67390843583630       14.64343344212399       10.47790788942252
C           25.47780113930465       13.04153139441128       12.59937899095404
H           24.78604865204518       13.37206106765304       13.37959880769833
H           26.22281521949778       12.39063071578956       13.06680937865486
C           25.13255985479786       15.16877425597949       11.33546347561532
H           25.62951634313086       16.04450349640281       10.90735537827885
H           24.42858018797127       15.51987461279242       12.09484877315843
C           26.41317009114919       13.00976149522571        9.81923883368623
H           27.13254251569742       12.67399825726476        9.06164953375994
C           25.71446967928622       11.79461756883051       10.43936589026312
H           25.18571730580594       11.23204803789811        9.66395590595478
H           26.45645882593502       11.12831689281772       10.89049102745384
C           24.72351659482298       12.27187852466681       11.50727606238073
H           24.22439181667644       11.40545731254903       11.95824711583008
C           23.67749753706486       13.18910608127995       10.86310713085451
H           23.12617325222766       12.64143937713257       10.09274360875975
H           22.95938788916223       13.52360766648461       11.61827085812510
C           24.38173663202420       14.40044477711542       10.24058166647820
H           23.63641568661490       15.06307496956248        9.78404924837218
C           25.37352211698807       13.92998859729418        9.17051708440422
H           25.87211115875845       14.79337247070227        8.71842197183062
H           24.84229832921887       13.39430327727965        8.37799245936303
S           29.54245742260772       18.37368734530869       10.84443288750819
S           36.86596653634331       17.93432686902094       13.79389810002797
S           26.99980193216274       15.17670119362986       13.30010008354824
Au          33.81045698219957       16.91126915016551       17.73881016418704
Au          35.93225148735686       14.85096346891281       17.47335502222720
Au          34.61545950748253       12.46339153444063       13.63899691205601
Au          32.81429383315677       19.58336419749238       17.04949523591511
Au          36.46383787594812       11.97170067504088       16.92932746120888
C           39.20071976986415       13.77916637922294       17.35105895236665
C           40.08593291039513       14.71762996032298       18.17439563604513
H           39.53137511616029       15.63268815739178       18.40104491234356
H           40.35425797191554       14.23961011497289       19.12063802843651
C           38.81225656396035       14.47618959364726       16.04763604342488
H           38.15842751430457       13.82966685782225       15.45584439732793
H           38.25884133946884       15.39177545793724       16.27464259099154
C           39.97994515019129       12.50120226563968       17.02984956403725
H           40.25383302885659       11.99305997705598       17.95857154057856
H           39.34647496464689       11.82115506724770       16.45302841884712
C           41.23865052633666       12.85266800944443       16.22619141133782
H           41.78684677570080       11.92999433165807       15.99873815089316
C           40.83987059399863       13.54682248494040       14.91889054129035
H           41.73364182145764       13.78647783094361       14.33483860244438
H           40.21385074038225       12.88064623494133       14.31643581175858
C           42.12759013130051       13.78823618580959       17.05389079889505
H           43.03423676023168       14.03419226785380       16.49256232819528
H           42.42931847862345       13.29155462469698       17.98122314776489
C           41.34841125987706       15.06811448133745       17.37681220473912
H           41.97521731967169       15.73846173697923       17.97795952697665
C           40.94887510854580       15.77133541768711       16.07460942178479
H           41.84271339636692       16.04501117371340       15.50586004546617
H           40.39812960709549       16.69028849064609       16.30050537764672
C           40.06870593541660       14.82921348234059       15.24671852219312
H           39.77023862930282       15.32877336057992       14.31619754473895
C           34.30984797928951       21.29601414357687       19.54944158610169
C           33.20382964257689       22.32881785869273       19.32852113773090
H           33.55806138813821       23.11435399903645       18.65466884362334
H           32.34385668914265       21.84690683085569       18.85309335203569
C           35.51454218967520       21.98031196950052       20.19876148190790
H           35.88980936349445       22.76880191933644       19.54020681441964
H           36.31818028267653       21.25210544694145       20.33734018649845
C           33.79771029712748       20.18723589779416       20.46503855534156
H           34.58025481105198       19.43762513441942       20.61840136395657
H           32.95119650858266       19.68304082045663       19.99247083293497
C           32.78373516413928       22.92849159769599       20.67509388191837
H           31.99032135863046       23.66742852174184       20.50700078400023
C           33.99075939811603       23.60948090954104       21.33134199859525
H           34.35918512105575       24.41568684245426       20.68941594449193
H           33.69481220212518       24.04898097296251       22.28870289817478
C           35.09714926411147       22.57096052429326       21.55179395835999
H           35.96646073266055       23.05340544033938       22.01548922186619
C           34.58256413456183       21.45387268033686       22.46792538600683
H           35.37266661864856       20.71502229542074       22.63677251475236
H           34.29834118588691       21.86927880871447       23.43944791956254
C           33.37239815219412       20.78191827366204       21.81030259888893
H           32.99649408090019       19.97626168399280       22.45358839857373
C           32.26418006988664       21.81624136851084       21.59079486446236
H           31.94863489008154       22.23643268995049       22.55061439737477
H           31.39461237790202       21.33259498079561       21.13491640538048
C           36.63209334180524        9.97202006232987       14.25213641402928
C           37.69848051385226       10.95688125234792       13.78100838327087
H           37.24209453951906       11.71763528659126       13.14204803449280
H           38.13207817749225       11.47146997568675       14.64287858267436
C           36.01099388887685        9.27468213423094       13.04136357029892
H           35.23081374923810        8.58292104266113       13.37197251205998
H           35.54356003126906       10.01955424460989       12.39029279001212
C           37.27475730639888        8.92989258431448       15.16880781331581
H           37.70267946349395        9.42699700540064       16.04453458403793
H           36.51535362687091        8.22592441726655       15.51989133477899
C           38.79108465084662       10.21031546243718       13.00969381036128
H           39.54860956517695       10.92972013775100       12.67385605840145
C           38.17120874284367        9.51122094516741       11.79465287151373
H           38.94677191798660        8.98233883954034       11.23241327331689
H           37.72017860202548       10.25297852264110       11.12803155736185
C           37.10328631459839        8.52033512147612       12.27202950419029
H           36.65244531679104        8.02098093914642       11.40567395164999
C           37.74749326490829        7.47458091573168       13.18954294209034
H           38.51797085622218        6.92321690620805       12.64208293269073
H           36.99238076414691        6.75646653710109       13.52415045460070
C           38.36985050851602        8.17911709199365       14.40079219054925
H           38.82639053548060        7.43400545252947       15.06364562916664
C           39.43979317542458        9.17103276089578       13.93033721712441
H           39.89154459360419        9.66994885237980       14.79371717608968
H           40.23257981231573        8.63986416260645       13.39499692859102
S           37.76559450404649       13.33845285661123       18.37415450022212
S           34.81729301130409       20.66354158413635       17.93394369913702
S           35.31021383723886       10.79706884739344       15.17629050999891
Au          33.94230690552722       14.79989406030414       15.49638055413880
Au          33.67586567632834       12.67803852830937       17.55765486718682
Au          29.84385600006701       13.99395116492238       19.94399725250134
Au          33.25447867047376       15.79592846668672       12.82408029154062
Au          33.13225572129003       12.14541801667525       20.43696608171019
C           33.55432945488829        9.40917041256849       18.62849424375990
C           34.37749271968266        8.52479298125646       17.68906533231035
H           34.60355677705145        9.08005768276447       16.77429250206482
H           35.32404097542066        8.25639130624575       18.16643459301073
C           32.25053608644156        9.79768381187262       17.93222192248058
H           31.65883027755847       10.45095724766893       18.57938137485542
H           32.47712074480677       10.35170972071379       17.01691504198912
C           33.23373719749092        8.62899647544184       19.90605502065109
H           34.16267479562244        8.35495945723150       20.41372734722725
H           32.65694711680383        9.26186736587414       20.58670832811015
C           32.43033053228501        7.37025721912272       19.55393623468551
H           32.20335602674930        6.82130622368577       20.47628261876168
C           31.12264165234916        7.76914813983756       18.86056367453271
H           30.53869767464576        6.87541182824998       18.62050463420066
H           30.52030595241501        8.39456771608944       19.52741325978210
C           33.25791886985312        6.48217637600800       18.61743778180671
H           32.69678336726731        5.57552668193990       18.37103675393106
H           34.18552881704251        6.18037072836505       19.11355473687520
C           33.58014789459109        7.26232689024617       17.33798877327726
H           34.18120802849173        6.63616377020779       16.66695909867591
C           32.27754817675907        7.66194398578045       16.63555403992546
H           31.70893178911301        6.76810902311784       16.36158134644312
H           32.50290062912435        8.21329433570291       15.71683343295898
C           31.44981632086416        8.54128286385755       17.57859717817660
H           30.51905329084813        8.83985452368597       17.07955598729065
C           35.75244072140521       14.30107911407736       11.11022872416578
C           35.53125394375974       15.40681114952875       10.07718476654938
H           34.85769438289383       15.05208702868691        9.29161705489079
H           35.05539615901285       16.26669525452548       10.55884297102822
C           36.40203809008603       13.09631374153822       10.42640069831402
H           35.74364646310772       12.72068411398169        9.63794285959465
H           36.54066176919569       12.29290890526750       11.15486476827616
C           36.66773221171918       14.81364326863189       12.21906201616560
H           36.82128079162086       14.03120037961135       12.96874631835000
H           36.19486093422179       15.66004740118838       12.72317579216534
C           36.87781979755431       15.82711211244941        9.47767329739819
H           36.70964180645270       16.62029190912814        8.73850746152716
C           37.53444759188779       14.62004552835256        8.79709307357182
H           36.89270487633602       14.25130167445641        7.99088790610827
H           38.49182349517888       14.91605216120453        8.35767779453054
C           37.75502560669023       13.51391880005723        9.83587042833869
H           38.21896123804721       12.64458442345410        9.35370497805480
C           38.67093944355648       14.02904477569880       10.95288818016398
H           38.83998336286685       13.23919681937161       11.69196751054806
H           39.64238327893803       14.31343381464991       10.53742125589887
C           38.01294933240224       15.23920147117549       11.62450843532612