430
 energy: -727.566247158713 gnorm: 0.000648569851 xtb: 6.5.1 (579679a)
Au           7.77017218117345       13.09540943884634        1.12395110789590
Au          10.08310360930543       14.01500978170796        3.31102818437202
Au           8.56076616796241       15.90511481438373        1.98640358186881
Au           9.06364194094455       16.44279740538287        4.53550997438119
Au           7.57781905995287       18.07905105859822        0.39820051844013
Au           5.80461365124229       16.11296928585412        1.25777006787915
P            5.86222730547393       11.88758403078388        1.84291425044437
P            9.35230069023855       16.86251828265905        6.84201345798022
N            9.35761267472626       12.17710540011489        4.70209025253867
N           11.45317077014219       12.21690735148462        3.89561636061104
N           13.51931549146095       12.53485017184998        2.96631276431113
C            8.34103863662270       11.63917784280796        5.36335799516510
H            7.44629940318395       12.24771391005044        5.45108381464187
C            8.40485529679324       10.37239406686353        5.91268523012123
H            7.56564030127276        9.96744331509797        6.46283430559876
C            9.56657695520675        9.62530495488936        5.71299191264636
H            9.63019628023693        8.60688390736498        6.07936544130396
C           10.63048943024794       10.18838520030476        5.04309290558870
H           11.52590012603864        9.61351948367229        4.84787481565022
C           10.52125687219512       11.51316791830794        4.58106874681752
C           12.77487881499384       12.00284386298418        3.96007207168477
C           13.42634420339268       11.34435367351047        5.02986758930944
H           12.84816765627375       11.02874467889497        5.88796751108326
C           14.78367465224392       11.14949476715755        4.99336876748021
H           15.28909025348447       10.65180509270365        5.81298447688020
C           15.50907383034845       11.60880686232760        3.88976008863685
H           16.57689155453296       11.45430994638100        3.81176103115053
C           14.83345306406192       12.31352322800637        2.92079795663612
H           15.35530750612654       12.73658469787628        2.07178862651830
C            6.15240550661578       10.09936886813246        1.91887268064761
C            6.46162923297651        9.45229646835327        3.11651117143248
H            6.44400649945868       10.00478505239472        4.04880225067392
C            6.79041369018231        8.10548648175262        3.12217044017125
H            7.02334117879125        7.61438333407041        4.05998519073792
C            6.82258145896580        7.38945327473738        1.93301324808643
H            7.07326981502727        6.33526720938223        1.93984091642940
C            6.53418062873837        8.02867742939321        0.73299593406294
H            6.56509106568406        7.47632630204816       -0.19925384958991
C            6.21141615529777        9.37535735960911        0.72290633813071
H            5.99779600462085        9.87108624520540       -0.21803109312286
C            4.51789362449932       12.03077465478147        0.62063436133994
C            4.59476822283596       13.02462048860128       -0.35637766110856
H            5.43740705302525       13.70479498633789       -0.35961778695473
C            3.61963775419158       13.14552574960384       -1.33170067409183
H            3.70290570603914       13.92285696300231       -2.08222161029624
C            2.54922666913585       12.26347599365140       -1.34863518763351
H            1.79116589152230       12.34595298347866       -2.11842458616693
C            2.45392027109228       11.27333518826049       -0.37989056018745
H            1.61819656814049       10.58326511221797       -0.38951230498708
C            3.42885647278158       11.15472039793909        0.59802814666663
H            3.35088053100005       10.36842516657820        1.34005175146023
C            5.14422265085246       12.35848869179213        3.44554796563979
C            4.13614288816020       11.62367898929856        4.07557520456596
H            3.74782151311987       10.72536771297423        3.60965938504687
C            3.63085684762647       12.03603225558887        5.29863278944063
H            2.84936502070932       11.45783972122764        5.77778917236011
C            4.12177106542274       13.18243341971989        5.91016389939535
H            3.72350561192036       13.50089625251727        6.86633654476294
C            5.12205171329414       13.91994727417379        5.29301277094908
H            5.50795526663046       14.81869336096413        5.75981928792631
C            5.62889222285433       13.50935338213244        4.07076478221576
H            6.40963558167002       14.08915169522009        3.59149900717173
C            7.96607889457405       17.72513055151410        7.63139738960924
C            6.67430666115319       17.38240868875856        7.22081812226438
H            6.54018490674303       16.60158472137202        6.47956182796908
C            5.57090791522621       18.03719205450194        7.74008151755071
H            4.57584005286486       17.76177761543606        7.40957194374182
C            5.74372692882414       19.05826634195634        8.66532703045735
H            4.88192593507428       19.58249155411990        9.06152748057898
C            7.02212450104036       19.41231042216784        9.07464263958246
H            7.16003517167037       20.21079981990038        9.79459526912102
C            8.12915691453964       18.75051093558246        8.56506483121114
H            9.12381813257842       19.03417009984565        8.88928274530956
C            9.58683866009510       15.29848588685696        7.72806456518253
C           10.52951589825738       14.40092966185183        7.21338193043599
H           11.13198946132805       14.68777953998950        6.35770794267449
C           10.68985378333776       13.14775226579300        7.77828813900053
H           11.42187204513757       12.46176882089645        7.36733830830537
C            9.90141857858442       12.76667449483274        8.85665212159499
H           10.01723581529874       11.78059677320258        9.29106541124337
C            8.96072823952338       13.64760303441505        9.37149932548111
H            8.34284455766566       13.35238407781270       10.21170717519749
C            8.80093397492853       14.90719590175514        8.81245903461201
H            8.06046903347924       15.58784556038459        9.21690233092815
C           10.81963948429854       17.87540390216867        7.17820490113529
C           10.88032956533484       19.13690729900437        6.57453155563942
H           10.04474045691427       19.48373714847265        5.97524601118958
C           11.98928105234401       19.94750013766395        6.74879714483752
H           12.01892448558083       20.92727283252098        6.28804523400811
C           13.06385027370769       19.50137124411733        7.50859070970032
H           13.93516681200903       20.13273049914316        7.63605382444265
C           13.02273873761350       18.24381228270228        8.09132894355225
H           13.86235437565616       17.88846406455210        8.67768869191091
C           11.90712331005674       17.43378842264980        7.93139664796630
H           11.88196453857737       16.45549227763791        8.39736342765231
Au          13.89974389336814       17.01349720152022        1.59203648249528
Au          12.44041251653039       18.89647495322737        3.46989969534853
Au          11.41339922282826       16.41467823182900        2.86946241024218
Au          10.10498898538388       13.91688865690299        0.16973886004526
Au          12.58464372000723       13.93109095298157        1.45048551011858
P           16.10088915784280       16.16386442743499        1.89274923486083
N           14.48655548416674       19.17926483590755        4.74432788127730
N           13.43755394692385       20.98442597333458        3.90724267394885
N           12.08933623417739       22.64312285924380        3.10578740282598
C           15.50229258801285       18.55054350382971        5.32229575072683
H           15.36607461336565       17.49132953922422        5.51630506767329
C           16.67389385806561       19.19990267131989        5.66532330387771
H           17.47662058789388       18.66411161917852        6.15476273064791
C           16.79663356218221       20.55415145273584        5.34879978210649
H           17.71990342333628       21.08208733182672        5.55924955664038
C           15.73863163150209       21.21256983711381        4.76120356623308
H           15.82158229949609       22.25218275494244        4.47282119277137
C           14.55408505789600       20.50032435972746        4.50105804241076
C           13.01760784507651       22.25317590703606        4.00414492969289
C           13.39971452793617       23.14728869112870        5.03228477341216
H           14.07967034091837       22.80897958718675        5.80273278128348
C           12.87340287604846       24.41338945311592        5.06960441238555
H           13.15250199362534       25.09987831762675        5.86064733243540
C           11.96299426086956       24.80652965089460        4.08306707007016
H           11.53627918704933       25.80049345756890        4.07391478347903
C           11.59558502759277       23.88097225959856        3.13476068253834
H           10.87102578799035       24.11934373600943        2.36553874393193
C           17.45209532256424       17.33022658138669        1.55573971952529
C           17.97469147977921       18.14040800936101        2.56680219180530
H           17.61160666379151       18.03923419228075        3.58310444141949
C           18.96269953662311       19.07018001475691        2.28106574542338
H           19.37431539310979       19.67629858592072        3.08001820858966
C           19.42141365103309       19.22407195857449        0.97948361830557
H           20.19255570650458       19.95230852926141        0.75759055927215
C           18.88524821220256       18.44534857044035       -0.03741063329666
H           19.23135072607085       18.56669034062029       -1.05757148516772
C           17.90731980857162       17.50561411611675        0.24570451647513
H           17.49786965817663       16.90004471291949       -0.55511934934175
C           16.46865583488263       14.78630502594990        0.75553884317831
C           15.81973090842016       14.73256430507987       -0.47900441941484
H           15.10316568190167       15.50018878461623       -0.74381372929663
C           16.08575934271204       13.71331909469758       -1.37851989416640
H           15.57133376711786       13.69001530476923       -2.33138944949384
C           17.01533308766032       12.73459772798306       -1.06025094248385
H           17.23299661778434       11.94274977559514       -1.76660262252551
C           17.66655481586617       12.77246212933495        0.16468152189888
H           18.39083130951525       12.00747831822489        0.41965302962873
C           17.39576566007347       13.78816944439124        1.06877591537031
H           17.91096205795001       13.80523378918588        2.02209211057021
C           16.39159651247203       15.49787754484834        3.55647989969764
C           17.66500152434214       15.31330119807829        4.10375253408916
H           18.54550735788442       15.59427724367046        3.53749244870947
C           17.80867564741640       14.78056159869788        5.37589448784267
H           18.80119954808115       14.64231826572247        5.78875126034097
C           16.69091991305600       14.42608044195662        6.11950779256754
H           16.80965724490794       14.01081219418785        7.11336449509444
C           15.42119711578607       14.60825630226394        5.58852435571455
H           14.54243258813973       14.33391200867624        6.16091642213749
C           15.27532618513901       15.14122671405629        4.31798617864985
H           14.28199742552535       15.28103479132643        3.90689412687878
Au           7.24212047798815       20.52824364556500        1.46089259346072
Au           7.01311181596337       18.19226410833333        3.34900389697578
Au           9.59810350558452       18.85836102636490        2.75825062005920
Au          11.78418369228840       18.50760538246252        0.70288494740628
Au          11.29256441901500       21.10542252524600        1.69523615192062
P            7.05940749821582       22.82102057833042        2.13224852598336
N            5.64057171238828       19.55731873410397        4.86140669852225
N            4.73370229425014       17.81652757721013        3.74736330755464
N            4.00885347006959       15.96196945137194        2.59740273259387
C            5.59124666509953       20.67351724421437        5.57623829064653
H            6.54565115034558       21.12160386916825        5.83695847746310
C            4.39553442153696       21.24581835169309        5.97116001473340
H            4.38624381339166       22.14691870225533        6.57021802793127
C            3.20799459480603       20.64096013015583        5.55729506514031
H            2.25211315861695       21.08810907673217        5.80605415840636
C            3.25763278303284       19.47852249857979        4.81849390529836
H            2.34971278644781       19.01941351097977        4.44998443864234
C            4.51142077577507       18.92048879733390        4.50740680728063
C            3.86707964910786       16.79828977726322        3.65000554050992
C            2.88335982213031       16.50614504145027        4.62696842096416
H            2.83909497721834       17.10733020154399        5.52548436490133
C            2.03294377205675       15.44494382971161        4.45585945309965
H            1.28582566271928       15.21331937206073        5.20620253519724
C            2.15154574995277       14.65222192054260        3.30876427928260
H            1.49472129781111       13.81084874628899        3.13355508520843
C            3.16666464506769       14.94029453753708        2.42747862746869
H            3.33205472770331       14.33306052086009        1.54591596780928
C            5.42093716523782       23.60604181874625        2.08365294652140
C            4.56002914087816       23.47269484572945        3.17710267107623
H            4.89120191262483       22.94048819893837        4.06213834223386
C            3.28811601083091       24.02211005223557        3.14086976626361
H            2.63679967260222       23.92570273988791        4.00192115506580
C            2.85144767067218       24.69454300013633        2.00570673148237
H            1.85849291869595       25.12756603994825        1.97962289609329
C            3.68878796847626       24.80483306247307        0.90362983934750
H            3.34936038739694       25.31967699972932        0.01221169503090
C            4.96404473844153       24.26262962057690        0.93860575481557
H            5.61207227333587       24.35842067875942        0.07465507030708
C            8.05670355916328       23.82505317406166        0.97943324511573
C            8.14550562026225       23.42487599846627       -0.35562481866292
H            7.59470188666186       22.55574706960495       -0.69211873743310
C            8.92545596311838       24.12371829086537       -1.26179890684185
H            8.98713413238229       23.78478168071347       -2.28869192973661
C            9.62347288495129       25.24914123827125       -0.84945569488503
H           10.23776778448477       25.79699600139632       -1.55436617945783
C            9.52922015292945       25.67292890457297        0.46905679947878
H           10.06427677673588       26.55750686663264        0.79532928597354
C            8.75406311048436       24.96796709321857        1.37882142628842
H            8.68612332717047       25.31493184196721        2.40347133833038
C            7.73582303654099       23.24244977988622        3.76666092248168
C            7.38511335396228       24.40795730333873        4.45523534694331
H            6.65261666340951       25.08621384724879        4.03298596554145
C            7.96459891799645       24.69987811911151        5.68037411505937
H            7.68392983447104       25.60703335614997        6.20283516560593
C            8.90120746040107       23.83842550060565        6.23527634438188
H            9.35417990773050       24.07043731960376        7.19198642557672
C            9.25418483222408       22.67724698991264        5.56207832943618
H            9.98441232787706       22.00067594743717        5.98917983353365
C            8.67346284206686       22.38159166599581        4.33996505546687
H            8.95110838049259       21.47075000052067        3.82055389808999
Au          11.83954051607516       20.86956861292169       -1.12355571128503
Au           9.52624438767604       19.95038217951561       -3.31089396609258
Au          11.04863410066059       18.05885983374446       -1.98688639618303
Au          10.54744362912298       17.52154462975993       -4.53608060852781
Au          12.03220565472170       15.88488400384571       -0.39720131378850
Au          13.80532041569663       17.85194203755155       -1.25755752236231
P           13.74735955984319       22.07712888985571       -1.84287292771058
P           10.25723944278998       17.10227674547922       -6.84195624547588
N           10.25197425195659       21.78773838966989       -4.70200590489195
N            8.15637152949627       21.74800816163944       -3.89554689347335
N            6.09021696837693       21.43006326750332       -2.96627657310980
C           11.26856835460976       22.32562849589450       -5.36326789449715
H           12.16329430623376       21.71707002609826       -5.45099678651943
C           11.20478985493060       23.59241306980372       -5.91259613158760
H           12.04401153542285       23.99734267956905       -6.46275040600306
C           10.04308325241403       24.33952895621561       -5.71290314402092
H            9.97948765457807       25.35794799805647       -6.07927986288415
C            8.97915137399247       23.77647996020472       -5.04301427532430
H            8.08375892152414       24.35136705146874       -4.84778729333294
C            9.08833363657521       22.45169688631112       -4.58098815569241
C            6.83467260816465       21.96204361665056       -3.96003143932156
C            6.18321950635493       22.62052448953807       -5.02982589510950
H            6.76142079946499       22.93615414209282       -5.88789859762662
C            4.82588795216426       22.81536737550735       -4.99334264198941
H            4.32049114306952       23.31305213861325       -5.81296781086950
C            4.10045976737538       22.35602302810592       -3.88975899494682
H            3.03263471644526       22.51048087411420       -3.81178987486114
C            4.77607966528425       21.65134622875222       -2.92077190297927
H            4.25421511313210       21.22820268114289       -2.07180523059811
C           13.45712959926770       23.86533369406411       -1.91884045055011
C           13.14801410875137       24.51241059562470       -3.11650229530169
H           13.16570849246533       23.95992400132738       -4.04879325835001
C           12.81925903415062       25.85922655573426       -3.12218711306664
H           12.58645095609169       26.35034073283124       -4.06002640223858
C           12.78700439486068       26.57525712611145       -1.93303047895848
H           12.53635663458179       27.62945221987065       -1.93987971274107
C           13.07527797762306       25.93602156971076       -0.73298753117000
H           13.04432433275047       26.48837706923915        0.19925697708021
C           13.39801319055908       24.58933585249108       -0.72287297232695
H           13.61154720764619       24.09360142721630        0.21808141364550
C           15.09171518861018       21.93401368212351       -0.62060526065536
C           15.01494863509175       20.94017325243497        0.35642243407999
H           14.17237567518772       20.25992130890774        0.35969571052624
C           15.99014912281852       20.81933159912229        1.33168759924871
H           15.90698960627606       20.04197836507224        2.08219981627581
C           17.06051840972781       21.70143762867880        1.34854731472124
H           17.81864580392451       21.61899604390717        2.11827534021969
C           17.15570702523237       22.69158256371552        0.37979584421122
H           17.99138616942630       23.38170821866491        0.38936292217148
C           16.18070144738047       22.81013551326418       -0.59806124989538
H           16.25857283987882       23.59645125800916       -1.34007450190904
C           14.46540289780974       21.60624735797361       -3.44549976989474
C           15.47352279984102       22.34106589240579       -4.07545636227460
H           15.86181571837617       23.23936875100487       -3.60950386709612
C           15.97883055452353       21.92877711767075       -5.29852639873066
H           16.76030165072834       22.50701742663842       -5.77765512152070
C           15.48790570163874       20.78242430675226       -5.91013968683541
H           15.88618882654706       20.46401123493888       -6.86632132203890
C           14.48759143397160       20.04489607103385       -5.29305850413762
H           14.10173002356307       19.14614904807356       -5.75989680705944
C           13.98072540441925       20.45542969958302       -4.07080048020285
H           13.19999693355137       19.87558641983593       -3.59157274746778
C           11.64347397583818       16.23973597034162       -7.63141171039072
C           12.93524599187556       16.58234478620404       -7.22073152942374
H           13.06936282745834       17.36304134014722       -6.47933762351327
C           14.03864399630586       15.92761005532490       -7.74007553797650
H           15.03371345141414       16.20294171628643       -7.40949962436693
C           13.86582649656342       14.90670243971694       -8.66550700509415
H           14.72762569460377       14.38253334935087       -9.06179095427661
C           12.58743149180285       14.55277812022081       -9.07493221087522
H           12.44952216832451       13.75441241414831       -9.79502446324790
C           11.48040271764742       15.21453038219922       -8.56528048575345
H           10.48574690473524       14.93095481379708       -8.88958925679641
C           10.02272625033645       18.66637457251577       -7.72790328963664
C            9.07997839608357       19.56384192207400       -7.21319749974119
H            8.47746402603955       19.27687980851536       -6.35759110291288
C            8.91964321958499       20.81707742645665       -7.77797014983241
H            8.18758672313813       21.50299506535757       -7.36698172627108
C            9.70814234964346       21.19830432595274       -8.85623425723240
H            9.59231881384947       22.18442605664361       -9.29054600473273
C           10.64889313775034       20.31746323989692       -9.37111859854361
H           11.26681041076858       20.61279217574507      -10.21126475665632
C           10.80869356274080       19.05781330780786       -8.81220458440966
H           11.54919531883286       18.37722786374173       -9.21669180204117
C            8.78994044171231       16.08938574267708       -7.17831042838133
C            8.72927716484091       14.82781709476741       -6.57477478779812
H            9.56477781458054       14.48103249717304       -5.97534263974170
C            7.62033822045372       14.01721852603946       -6.74911823571420
H            7.59061883926334       13.03749480652763       -6.28827245618097
C            6.54574192810360       14.46342539429021       -7.50882560027709
H            5.67440726688677       13.83209449713221       -7.63629045285910
C            6.58686931219260       15.72101192816021       -8.09150123528526
H            5.74728679911774       16.07636871014404       -8.67790006545063
C            7.70248059935743       16.53102866819457       -7.93150938136029
H            7.72766155416454       17.50933425286874       -8.39745335210407
Au           5.70981184919132       16.95074181325105       -1.59186291164454
Au           7.16856714115176       15.06791140664443       -3.46792895897467
Au           8.19675498186784       17.55058770214162       -2.86950402124991
Au           9.50446956632383       20.04829514416991       -0.16960170611309
Au           7.02478471815805       20.03419563841352       -1.45049506281667
P            3.50879109993900       17.80097225398165       -1.89279243472527
N            5.12315786968332       14.78559549131381       -4.74440989776318
N            6.17203778613991       12.98038370979910       -3.90732009941786
N            7.52020429127677       11.32172055439492       -3.10580851467271
C            4.10746410201041       15.41436447833398       -5.32242450364580
H            4.24373326314964       16.47357050449990       -5.51644295342119
C            2.93583755857364       14.76506091765714       -5.66548183965578
H            2.13314835664248       15.30088447664284       -6.15495067760837
C            2.81302567837583       13.41081465196616       -5.34896920051186
H            1.88975515313904       12.88290718071846       -5.55948728915400
C            3.87097470494696       12.75235012990047       -4.76133691463089
H            3.78797060279652       11.71273855831233       -4.47297107313109
C            5.05554506921429       13.46453691644718       -4.50114409277659
C            6.59196672953348       11.71163920694315       -4.00420670925219
C            6.20984486028467       10.81749257927803       -5.03229896796173
H            5.52992545259059       11.15579921383894       -5.80277857545214
C            6.73611092153682        9.55137172474103       -5.06952895133941
H            6.45705733360376        8.86487892918728       -5.86058033442647
C            7.64651460860500        9.15826565649771       -4.08296640718223
H            8.07323829379712        8.16430512992204       -4.07377555994237
C            8.01393426793348       10.08386293271638       -3.13470248268582
H            8.73846880607058        9.84551811846233       -2.36544686806641
C            2.15758614569479       16.63459002580128       -1.55583663137625
C            1.63500570001326       15.82444009432084       -2.56693351747671
H            1.99811638545860       15.92563808003633       -3.58322361476738
C            0.64698786242725       14.89466047061281       -2.28124671184847
H            0.23545568800051       14.28849739391043       -3.08021123908912
C            0.18823568996658       14.74073607672713       -0.97968184171345
H           -0.58286603395571       14.01244657572366       -0.75781870888169
C            0.72436476740713       15.51944239417031        0.03724380072518
H            0.37825305520831       15.39805113396624        1.05739462837944
C            1.70230658260569       16.45918193553003       -0.24581999675047
H            2.11171974401231       17.06474249113937        0.55502902323425
C            3.14094366553790       19.17849984968980       -0.75555481182053
C            3.78988809012344       19.23228327906400        0.47897672862083
H            4.50651571861260       18.46471543568088        0.74376401846316
C            3.52378314774139       20.25147867375811        1.37852651971068
H            4.03824165677075       20.27481623881633        2.33137839261731
C            2.59410073927830       21.23011190846209        1.06031408446483
H            2.37637294709087       22.02191608940542        1.76669721447061
C            1.94285042254204       21.19221194044362       -0.16460108190088
H            1.21848473173251       21.95712744290156       -0.41952584679212
C            2.21371751536947       20.17655334755361       -1.06873197944933
H            1.69850244100755       20.15947228068045       -2.02203683152271
C            3.21809081462514       18.46699338923488       -3.55651915877601
C            1.94468816789394       18.65161070981187       -4.10379175339256
H            1.06417673591127       18.37062057008234       -3.53754775210912
C            1.80102606528035       19.18433141072663       -5.37594519236101
H            0.80850899861531       19.32252424446191       -5.78883534193428
C            2.91878917494005       19.53875233642458       -6.11957476660326
H            2.80006554864911       19.95398737423581       -7.11344695250173
C            4.18850413233868       19.35653275558247       -5.58859803729671
H            5.06727539618138       19.63086187721570       -6.16098605636217
C            4.33436089134612       18.82359112437262       -4.31805088248532
H            5.32768752539495       18.68380805788301       -3.90696028086556
Au          12.36819361904197       13.43718537235774       -1.46228733273405
Au          12.59619922767043       15.77232293355187       -3.34877576949801
Au          10.01168552187521       15.10652664797627       -2.75825575366673
Au           7.82446285656098       15.45647297751039       -0.70373415335211
Au           8.31675312002942       12.85968049117900       -1.69543157623336
P           12.55024090932473       11.14387154518628       -2.13210788980933
N           13.96898865662157       14.40749954788680       -4.86140735687933
N           14.87584483993609       16.14827994152142       -3.74736139775362
N           15.60074296976055       18.00283756442662       -2.59741786839586
C           14.01831652565863       13.29131021339052       -5.57625552966129
H           13.06391356986803       12.84321616708644       -5.83696374973696
C           15.21402414406660       12.71901250722862       -5.97119224729310
H           15.22330808791390       11.81793489356344       -6.57028470326606