520
 energy: -674.109070432979 gnorm: 0.000710901801 xtb: 6.5.1 (579679a)
Au           3.54608931791660       10.56784881498859       29.42079450044269
Au           4.22318973605534       10.76977723500626       32.37569732316404
Au           2.10369712518509       12.61081753656052       31.48969655354928
Au           0.45429982615993       11.24388606648912       29.64535540998990
Au           4.13469605965486        8.24574506179421       30.84976832270367
Au          -2.27392419666640       10.90390422072043       30.35535675204973
Au           0.35302975343388       13.62802825104828       33.79168471952162
Au           4.07037641366317       13.46050684304831       33.29512733388466
Au          -0.42714701199722       13.65337155090263       30.98061237214149
Au          -1.06100869277562        9.39945798279783       28.28796416550320
Au           6.16803577004948       10.15796205351799       30.42689881396620
Au           4.72630706980867       12.95592999944579       30.46570577326199
Au           2.57845969611234       12.88690619173928       28.41272548995965
Au           1.90676046105369       10.29009799149577       27.25245032436016
Au           3.86540127155983        8.13016290840924       27.81378794173025
Au           1.49603084640456        8.04428505485415       29.11162357729384
Cl           5.40355418514489       15.47119121822664       33.74472464475483
Cl           8.55624669287901       10.33506248903204       29.84381159648076
Cl           0.03004440322853       10.50660829690247       25.63230306282110
Cl          -1.69346227267629       15.77314542534327       30.77151946695171
P            5.90591145344600        8.48274007399566       26.57902155250684
P           -2.03186028375129        8.00299634459669       26.59882185598207
P           -4.07018741425144       12.38975037594553       30.87657491433160
P            0.67526674858256       15.86731848971689       34.49366864190643
P            6.83617927815244       14.05374995401229       30.33854854606164
P            1.52048360883836       14.69492273050636       27.23998506260446
C            7.48469936046447        7.94771002674761       27.37255271701178
H            7.52850017788323        8.42957480957429       28.35390534625612
H            7.42321179851231        6.87121488484928       27.55775775833651
C            8.77611233838112        8.26614524561275       26.60826412041445
H            8.82431507699276        9.33639421537850       26.39096169795020
H            8.79190799817389        7.73015594703103       25.65408807667782
C           10.00312114868655        7.88144655476064       27.43920724143715
H            9.95477141157372        8.39525771717616       28.40440936407069
H            9.99374565557782        6.80264487675432       27.62492912207258
C           11.29731706309240        8.26227081845117       26.72466578319917
H           12.15609237522234        7.98067751047169       27.33423014091958
H           11.37088485467050        7.75249703401129       25.76289964849806
H           11.33442066664207        9.33827587658950       26.55034497994383
C            5.88531864930640        7.63011418637373       24.93972603239621
H            5.09417682732315        8.07717479716504       24.33032762657759
H            6.82493472868262        7.75667692432245       24.39514273367641
C            5.58500491641904        6.13869157927114       25.13391127503352
H            6.40999057305943        5.66047791146663       25.67166012284395
H            4.68603261383603        6.03030756521423       25.75194761665391
C            5.36693560402967        5.43065089632822       23.79493870086193
H            4.54343949255079        5.91429159725607       23.25958448168729
H            6.26730027465604        5.52922559730392       23.18024876554188
C            5.04499514640106        3.95199844591134       23.99914846398163
H            4.87396045583413        3.46680977005997       23.03822982476464
H            5.87255622649392        3.44770035410028       24.50011878108385
H            4.14851592225861        3.83643606126360       24.61027582323671
C            6.22345574990810       10.26376389756826       26.19519084769140
H            6.38393016584675       10.76974574265387       27.15328872161092
H            7.13911392142006       10.38055466346646       25.61119049406269
C            5.06301929189038       10.93422709129279       25.45506842635142
H            4.11187672002151       10.60675754413386       25.88952248882990
H            5.06442590950395       10.62542737022092       24.40578458907211
C            5.12907336876864       12.45976074674229       25.54922540375505
H            4.24498918579688       12.87337431301687       25.05380276729526
H            5.08612671354483       12.75589078869058       26.60414994819604
C            6.38670534655621       13.04072673987261       24.90786924549787
H            6.35742384004518       14.12934593404731       24.94821865329039
H            7.28130599843962       12.70582142065433       25.43245369199068
H            6.46039533972017       12.73436631775779       23.86387910841930
C           -0.84306555003063        7.26317601682769       25.39243652182767
H           -1.37041445197112        6.65801579899810       24.65076088700322
H           -0.37423525487593        8.09389578439638       24.85841082821869
C            0.23971502416402        6.43280680529689       26.08304898284054
H            0.54934650633572        6.94140676138346       27.00350574792195
H           -0.16386955051838        5.45878861646248       26.37336085410555
C            1.48030632031306        6.24899186698920       25.20689133314402
H            2.27849698915270        5.81692573095923       25.82114096236714
H            1.82763639531641        7.22803460698191       24.86110709830101
C            1.21935893897202        5.34017568993894       24.00847024962156
H            2.13220278898518        5.21709265959693       23.42531521974997
H            0.88566910646513        4.35628938284481       24.34208336247275
H            0.45295470246930        5.76512555128776       23.36004861778033
C           -2.97577267560259        6.57537254655750       27.29352434929941
H           -2.34118932393444        6.10607037272564       28.05137701386218
H           -3.84075749744886        6.97798875586361       27.83173967437814
C           -3.44011755365322        5.49872904141887       26.30684248915469
H           -2.57399517781466        5.06731599915851       25.79618242385150
H           -4.09238781520834        5.93836656511871       25.54538848202213
C           -4.18531515919169        4.38621447420372       27.04988032940488
H           -3.54125403332082        3.98632026119264       27.83911876773201
H           -5.07741240922807        4.80514291233750       27.52568313355752
C           -4.59467667092938        3.26154451399214       26.10258845158155
H           -5.11593153609926        2.47950985584532       26.65508226175657
H           -5.25791931979874        3.63709301680078       25.32176024905902
H           -3.71565450145606        2.82316997162793       25.62777168714314
C           -3.20775446787636        8.88783269091923       25.48441177937744
H           -2.61342171330763        9.57657523637596       24.87560805128349
H           -3.70416914323226        8.19439840850425       24.79931863742600
C           -4.25551762516151        9.69134554035871       26.26141821614646
H           -4.91893265192654        9.01582646335855       26.81135721182940
H           -3.75296789343480       10.32827123498978       26.99792442900111
C           -5.07529601084263       10.56257110278658       25.30538024031657
H           -4.39593476214542       11.20256398963088       24.73312612618830
H           -5.60336786027336        9.91992524640883       24.59346916861766
C           -6.08256812585802       11.43419325401122       26.05029204782316
H           -6.63193307858551       12.05968913506480       25.34641622108084
H           -6.79719663954882       10.81544853013934       26.59399959342124
H           -5.57265920773479       12.08347393092474       26.76380797737450
C           -5.71971145131942       11.60107872404299       31.09763384197036
H           -5.68179108514364       11.00219579865103       32.01354475288697
H           -6.51080770117789       12.34512077128926       31.22357729023471
C           -6.05179636517527       10.68595246920691       29.91461755551457
H           -5.19665109815280       10.03454396130692       29.70044248283898
H           -6.23493289484667       11.29167578610797       29.02179595546816
C           -7.28092270838654        9.82509334781847       30.21445766825399
H           -7.04731704531583        9.14308486403805       31.03814089841949
H           -8.10705655873151       10.46670073076866       30.53752426338645
C           -7.70771467973055        9.02646686082558       28.98499371463286
H           -8.52755060850225        8.35376848155403       29.23744938960021
H           -8.04249574616684        9.69622350893101       28.19150540829594
H           -6.87453807449181        8.43359254367492       28.60481160791278
C           -4.25105349721903       13.66180822997959       29.55235429549117
H           -3.23524039103097       13.95914458474133       29.27701520704655
H           -4.67991381748158       13.16791182611310       28.67432906065138
C           -5.04481676057351       14.93214113107503       29.86928648754085
H           -4.59747750396473       15.43245768927313       30.73088129375305
H           -6.08277125118318       14.68528094020040       30.11183465608984
C           -4.99881370405310       15.89036104362206       28.67545853143384
H           -3.95282008861400       16.10971512819519       28.43713130089249
H           -5.45123861205243       15.41165738726616       27.80053667518965
C           -5.72984954994917       17.19444002724027       28.98556700117655
H           -5.68114853920713       17.86417360955001       28.12660023863530
H           -6.77826378431976       17.00159046840800       29.21758386348186
H           -5.27126960630297       17.69257783848116       29.84064511079126
C           -3.74826622886860       13.32591642224916       32.43734176114577
H           -3.22272537745247       12.65469888403513       33.12338803137484
H           -3.04312869355819       14.12200927018061       32.18842102975930
C           -4.96695257750724       13.91249735077533       33.15925574047288
H           -5.50040242294286       13.10201607982999       33.66181861404018
H           -5.66234468568538       14.36702616866939       32.44990564599140
C           -4.54890390047400       14.96597463196476       34.19309306998955
H           -3.69493567988437       14.59491608600570       34.77119695706168
H           -5.37955433287497       15.11490789512042       34.89079305871325
C           -4.18846192435724       16.30461221356464       33.55165880282856
H           -3.94050738196523       17.03241899132050       34.32554753416721
H           -3.33259186805391       16.20404554149218       32.88408110375371
H           -5.03089572567624       16.69039508467486       32.97599949302796
C            2.14756406327710       16.02510923298920       35.60001015963223
H            1.81355735587250       15.79475246421449       36.61686503559169
H            2.83814892389564       15.22680284815990       35.31311720029796
C            4.93136729056205       18.52553434308686       36.58406547955403
H            5.74974621691884       18.44224824152143       37.29968715544389
H            5.35323967103365       18.69506797532879       35.59283210136465
H            4.31969061172550       19.38760489778439       36.85445682994906
C            2.92984908873687       17.34235619888677       35.60622715121059
H            2.27963402500341       18.17840607093856       35.87812357312574
H            3.32948130980202       17.53466019577708       34.60814785494760
C            4.09715743959399       17.24737684041015       36.59311863076596
H            4.73078923462670       16.40041374745421       36.31236115002302
H            3.71254184648261       17.06147498232620       37.60200600851505
C           -0.75960793329570       16.57620928710531       35.41540560381324
H           -1.60355728297196       16.58391896028558       34.71892255067885
H           -1.02443964992493       15.87627427409430       36.21418445989599
C           -0.58128360443539       17.97771178420544       36.00879385797621
H           -0.23588369781935       18.67192183578280       35.23736037221834
H            0.17502200555761       17.94895560793331       36.79858809475454
C           -1.90444498607318       18.48551239181755       36.59009848950281
H           -2.26767954775725       17.77621766360016       37.34132603423805
H           -2.65408011007012       18.53734249397006       35.79364250011901
C           -1.73734220007314       19.86318209979279       37.22682373163558
H           -2.68939733866053       20.20610177520176       37.63217599874944
H           -1.00842111355709       19.82364880501843       38.03736849172909
H           -1.39376224966864       20.58685976095037       36.48670254437929
C            0.93690397895998       17.02787777917258       33.08972452392507
H            0.00543823276551       17.09133208659494       32.51725749530190
H            1.15938903172181       18.03170902140856       33.45998694399918
C            2.05924904100662       16.54277552914737       32.16330096523063
H            1.68337483124686       15.70346202501188       31.56845617724973
H            2.90746756792905       16.17141398249935       32.74516249589498
C            2.54421378444117       17.64689110200648       31.22244004664287
H            3.15185939261834       17.18457291663395       30.43757833479373
H            1.68408138971616       18.12299495605619       30.74145674000931
C            3.38346857319244       18.70176068730614       31.93988348292781
H            3.73501403532633       19.44657252657330       31.22567317145431
H            2.80044447154515       19.21587704702711       32.70454511409132
H            4.24769347288184       18.23737335060600       32.41661268199626
C            7.88438984553426       13.39219549385352       31.70853898142554
H            7.21696921923136       13.10060196808534       32.52453919452023
H            8.35086180476620       12.47048970359539       31.34638159490498
C           10.98702857309993       14.45940880738723       33.76764931423292
H           11.62228601654557       13.89460293001639       34.45033292510414
H           11.60653924207341       14.85014343788471       32.95930930514079
H           10.55665189071672       15.30164810301432       34.31063501601381
C            8.95722531024191       14.33160086070827       32.27045737822738
H            8.47726475071514       15.14932050785026       32.81576832621701
H            9.55016713404195       14.76758526426119       31.46175184949611
C            9.88636465877246       13.56018091217865       33.21014118652927
H            9.30100548274612       13.13838629510625       34.03414469710973
H           10.33904536547592       12.72762897957802       32.66241173390926
C            6.91103454646185       15.88911685476139       30.50740547905095
H            6.51429133205396       16.14885305903079       31.49419791504391
H            7.94884964581151       16.23241094352988       30.47351991265944
C            5.44042468982902       18.90651038016611       28.56614367159647
H            5.54253445226110       19.97881117791686       28.73409688135794
H            5.78430823244748       18.68067678204825       27.55612126340343
H            4.38409074335970       18.64418865127627       28.64059427160728
C            6.10335988826458       16.61867014870417       29.43082778507609
H            5.04704513549530       16.34126665329332       29.51355033474422
H            6.44604348067914       16.32325388145891       28.43360367049934
C            6.26102660981688       18.13313757598901       29.59466678479888
H            7.31833764562172       18.39753257980674       29.48944088533361
H            5.94878543586027       18.41943490350264       30.60324162374700
C            7.72916033444810       13.64204808293975       28.77693721498328
H            7.63294882259905       12.56097464620462       28.64541175128831
H            7.18830081054035       14.10654905301489       27.94561328508907
C            9.21166358257647       14.02554792773013       28.70913179020139
H            9.75846813014302       13.51218908719733       29.50454337790016
H            9.32286977571371       15.10313506036034       28.86300439076810
C            9.83059882700135       13.65208821673205       27.35679137678065
H           10.83159614727732       14.09294786289545       27.30860226033793
H            9.23628196702145       14.09089450009829       26.54779428135235
C            9.94138232527542       12.14159019665166       27.15541669995836
H           10.48097870604818       11.92759757161222       26.23227999652662
H           10.47368068451879       11.68187048753503       27.98832438354763
H            8.95479858797091       11.68270339577469       27.08994251137412
C            2.55112245249709       15.47733224118664       25.91900154000742
H            2.76182400535492       14.72153368347187       25.15622745664076
H            1.99621737810073       16.28176355997659       25.42886674094875
C            3.87201273161916       16.01213799477353       26.48095919321134
H            4.41229261466674       15.19004254818994       26.96300297278726
H            3.66931656913576       16.76388902445201       27.24989917279695
C            4.76251678319736       16.62513021706844       25.39536552796280
H            5.75093059754689       16.81196827039444       25.82770261412644
H            4.88732175994351       15.90762187135990       24.57794942962220
C            4.20418322231095       17.93464625572104       24.84082638642695
H            4.91088762624067       18.36787273777529       24.13283869735437
H            3.25885170088642       17.76956510148494       24.32320625120740
H            4.03713007206995       18.65126546790466       25.64596642172823
C            0.05705919522980       14.10100407841264       26.28678567932041
H           -0.31443811654875       14.89227852975194       25.62994193574308
H            0.38275267146792       13.27445580239733       25.64715563953646
C           -1.06619974143900       13.60036050028941       27.19859037105025
H           -1.40536077531901       14.40121659428458       27.86195860192660
H           -0.66992229432979       12.79897224719912       27.83149834228645
C           -2.25269785518624       13.04725070989204       26.40772873088613
H           -1.89698534753076       12.29084516398977       25.70280659957581
H           -2.92665041814362       12.55025538335003       27.11349587585675
C           -3.02139858358455       14.13296489937434       25.65931403667436
H           -3.90993248552563       13.70577331188616       25.19401378648782
H           -3.33484873506446       14.92224454522622       26.34397102674195
H           -2.40724128978701       14.57845571729902       24.87625263448955
C            0.90911139494271       16.11484383259714       28.24585832672762
H            0.38094741632676       15.70680036096804       29.11189103843549
H            1.78407541173162       16.63968074353432       28.64131375148863
C           -0.00755361909662       17.11582545286438       27.53211458911465
H           -0.90715677740967       16.60513603493780       27.17709714072518
H            0.50077861392151       17.54121040452801       26.66075266405943
C           -0.41755027442804       18.23826054574128       28.49037958650779
H            0.47287374003611       18.79367360461658       28.80373885575668
H           -0.87256807870104       17.79862458114420       29.38266267587089
C           -1.41198185187509       19.19031597423749       27.83068006966663
H           -1.68759670646782       19.98250052964246       28.52707903948318
H           -0.97811924319628       19.64602982038272       26.93915794766307
H           -2.31666154268822       18.65389031956829       27.54084549598081
Au           0.24146302526413        8.98648776615970       34.02101792164552
Au          -0.43706425581941        8.78443452542168       31.06535367802429
Au           1.68445178869140        6.94303118619272       31.95241677280394
Au           3.33318688963365        8.31084453078186       33.79578184590618
Au          -0.34650776523874       11.30916110862462       32.59187224915027
Au           6.06201242130880        8.64989621279573       33.08534171530579
Au           3.43464170152561        5.92709337166471       29.64887240123368
Au          -0.28310829386966        6.09379695475131       30.14561670638154
Au           4.21434887083261        5.90095164536710       32.46168297448585
Au           4.84868619378674       10.15401595078434       35.15359761501127
Au          -2.38078700590038        9.39554116737660       33.01498062539806
Au          -0.93952212533327        6.59779709951314       32.97576991770669
Au           1.20815753908068        6.66696070760740       35.02838944663142
Au           1.88058790631977        9.26423558945628       36.18916304509477
Au          -0.07747739008775       11.42272721332651       35.62666403963089
Au           2.29072405428524       11.50957156492191       34.32957453007503
Cl          -1.61611918483832        4.08282679502124       29.69661031088970
Cl          -4.76866870956721        9.21895003541964       33.59755115346374
Cl           3.75729549244970        9.04734932394227       37.80899081719853
Cl           5.48097070720073        3.78013235653343       32.67019616299491
P           -2.11854269720505       11.07127809678184       36.86247761068424
P            5.81921812779538       11.55112348688031       36.84259471847136
P            7.85757966042530        7.16425265768168       32.56483125762729
P            3.11215195165154        3.68660515861470       28.94771472680089
P           -3.04876395181493        5.50034529515058       33.10285690069900
P            2.26699773704401        4.85902678303515       36.20132585768830
C           -3.69726829828873       11.60633083016112       36.06883957456606
H           -3.74107582915829       11.12442821346363       35.08749684454215
H           -3.63573557630932       12.68282141794105       35.88361666703624
C           -4.98866841560884       11.28795329784672       36.83318018926717
H           -5.03688742766653       10.21771765858144       37.05054964812935
H           -5.00446223399414       11.82400220024117       37.78732401116403
C           -6.21567732436218       11.67262388267851       36.00222375511021
H           -6.16734117068291       11.15875722329584       35.03705130485950
H           -6.20629809106685       12.75141519261468       35.81644056260214
C           -7.50987671736026       11.29185499087391       36.71678990352258
H           -8.36865166872815       11.57340285409227       36.10720385615580
H           -7.58344897152906       11.80169821381702       37.67851848084755
H           -7.54698507609736       10.21586344846085       36.89118975617077
C           -2.09790065196043       11.92388898103519       38.50176712753697
H           -1.30673425406637       11.47681024012621       39.11112076368860
H           -3.03751042879609       11.79728646512987       39.04634444247361
C           -1.79761136327977       13.41531917119583       38.30756557506127
H           -2.62260836705512       13.89353065686240       37.76983166047641
H           -0.89864404792645       13.52376728809807       37.68953959845400
C           -1.57951118126475       14.12330934431654       39.64655384245633
H           -0.75599062203374       13.63966553100810       40.18187014738069
H           -2.47985991921191       14.02471150777072       40.26126220032121
C           -1.25759335441056       15.60196679861907       39.44234840272240
H           -1.08654613912574       16.08713720274782       40.40327293595703
H           -2.08516673385016       16.10626872671904       38.94140204195671
H           -0.36112496371424       15.71755275031542       38.83120961448223
C           -2.43605280995740        9.29023085785075       37.24619012720257
H           -2.59651069871306        8.78428699082668       36.28806733255028
H           -3.35172015240888        9.17342725258604       37.83016605886142
C           -1.27562668463064        8.61974921950896       37.98630855324494
H           -0.32447972332123        8.94723013230183       37.55187005905101
H           -1.27703602322268        8.92853418528281       39.03559548393773
C           -1.34166186094535        7.09421783553949       37.89210039270930
H           -0.45759064285530        6.68059839189933       38.38754392339872
H           -1.29867523678812        6.79810919460856       36.83716659298442
C           -2.59931894752429        6.51326900081785       38.53343193361759
H           -2.57004081650644        5.42465042443586       38.49307155803226
H           -3.49391164410944        6.84818106785018       38.00883657816784
H           -2.67303033326038        6.81961406567795       39.57742559162822
C            4.63045022389287       12.29091856148814       38.04899139555452
H            5.15782372891435       12.89606937760257       38.79065313870776
H            4.16164435153532       11.46018401951426       38.58300719202764
C            3.54768265515074       13.12124990221090       37.35832367061203
H            3.23804021868321       12.61262717714999       36.43788199551386
H            3.95127257738692       14.09525688325594       37.06798256806880
C            2.30709478428663       13.30501114588233       38.23449058442525
H            1.50891003201544       13.73706644396995       37.62022776314077
H            1.95976450763578       12.32596865758917       38.58028744411759
C            2.56806084350519       14.21386210956238       39.43288205999426
H            1.65521623634588       14.33696764260344       40.01602790703711
H            2.90177061159926       15.19774070888556       39.09926265602392
H            3.33444966234492       13.78890711059632       40.08131838235355
C            6.76321099466057       12.97866681108804       36.14786792594550
H            6.12862033575249       13.44796719834068       35.39003322907802
H            7.62818037340947       12.57604328283756       35.60962992348517
C            7.22753603532434       14.05531492392348       37.13453506176677
H            6.36140288450316       14.48672402347711       37.64517950224683
H            7.87978543576868       13.61565906528957       37.89599253378704
C            7.97275117853058       15.16781913621992       36.39151015875190
H            7.32869819877275       15.56770518826120       35.60226270776599
H            8.86485103100169       14.74887874926409       35.91572325425940
C            8.38209075666994       16.29248450297185       37.33881229975776
H            8.90336012754965       17.07451767978868       36.78633046546139
H            9.04531157248498       15.91692339158922       38.11965321715966
H            7.50305461981950       16.73085336394412       37.81360896227418
C            6.99514614836317       10.66621306056543       37.95691038890912
H            6.40083313741237        9.97745539304227       38.56571035824430
H            7.49158667472760       11.35961221286038       38.64201773859153
C            8.04290453947576        9.86267425483518       37.17993082575433
H            8.70631650906934       10.53819408655370       36.62999687818565
H            7.54035356113843        9.22576186140359       36.44341501791789
C            8.86272180594758        8.99144713414916       38.13593045769206
H            8.18336122416703        8.35145591672816       38.70818263856300
H            9.39077482744232        9.63410257643937       38.84784584693138
C            9.87000552863320        8.11982230544887       37.39104193618051
H           10.41938123440007        7.49433400397274       38.09491745970654
H           10.58461669140256        8.73858662460315       36.84733630032070
H            9.36009735137788        7.47054339555902       36.67752392602072
C            9.50707877866568        7.95298691723328       32.34377481527605
H            9.46916356629814        8.55186661651853       31.42786087626498
H           10.29820947254458        7.20898165976077       32.21784032754067
C            9.83916764977239        8.86812741133696       33.52677129514230
H            8.98399115250862        9.51950135933258       33.74092202715807
H           10.02230392325095        8.26241297524120       34.41959738939664
C           11.06828303992359        9.72901204003404       33.22695650326993
H           10.83469353164876       10.41097095329372       32.40322924321607
H           11.89444788247047        9.08741229205364       32.90395605022243
C           11.49499850523855       10.52771658213550       34.45639394380763
H           12.31482149413356       11.20043275639140       34.20394521671235
H           11.82976340037231        9.85800423127963       35.24992522191468
H           10.66177990793559       11.12057316825422       34.83650920022276
C            8.03853057035616        5.89220909177578       33.88904897189884
H            7.02271998968475        5.59486872978828       34.16437948208258
H            8.46736487098571        6.38612549397554       34.76707650274255
C            8.83231851827490        4.62189710849041       33.57210846293523
H            8.38497768703822        4.12158276588940       32.71051050295763
H            9.87025881585686        4.86880330894210       33.32954506498953