324
 energy: -602.217046219559 gnorm: 0.000705374387 xtb: 6.5.1 (579679a)
Au          11.12106770200980        1.10221363839172        1.06093573961579
Au          14.72729326321659        0.35084396097709        1.25048464488009
Au          10.69582338136248        2.01064441540176        4.00459661746665
Au          13.29298441973332        2.33924939857605        2.98524778258868
Au          17.04491328006506        3.74458244209388        2.53488248403854
Au          16.07248995489293        1.72433447740935        4.54537690375915
Au          12.88666743770347        0.46584356154051        5.03077043961907
Au          16.08032007310315       -1.22390268891084        5.52712111423114
Au          17.87379231359631        0.33823391868287        8.33291418102359
Au          15.10761703652676       -0.74374646506622        8.38537128337918
Au          12.98996867035221       -2.67762769751364        9.46936482409973
Au          12.45662872469885        0.13581751694172        7.98795207733293
Au          14.89361164174780        1.66280362139624        7.05970646747585
Au          17.37696113928156        2.91479516095916        6.85926385623510
Au          18.50838830153939        5.43868445244659        5.44462721808409
Au          15.28604054146335        4.19354292352525        5.55632398009618
Au          12.42693818361976        3.06064559546519        5.86563971186873
Au           9.18111495733053        1.87502826945117        6.53150914844900
Au           9.75061641772635        4.87660343534295        4.49975594326645
Au          13.34250444516844        5.21587617299750        3.87428688324566
Au          16.03096098284978        6.20588571389415        3.82667104121136
Au          15.35411704992065        9.11753785550715        3.61439102650757
Au          12.08702278610202        8.95435206438757        5.33413458285401
Au          11.60465715952498        5.50829510342795        6.90523951989930
Au          14.23639769933568        6.94175022916244        5.88605664974292
Au          15.99038830217732        5.87724933707469        8.07554123855836
Au          13.73225461381991        4.27741270503741        8.23395521753359
Au          11.23903014749528        3.05622586193197        8.39522868254928
Au          10.32294889285068       -0.21787208998886       10.08198801372048
Au          14.10802951421126        1.58572593020979        9.71581806987450
Au          16.26630548111925        3.67355022729062        9.76898227211568
Au          19.24192189644929        4.05918765759166        9.95766761113365
Au          12.22218101967003        7.25746938640274        9.28471424614409
Au          14.44720151609490        5.70727298013294       10.47953880151950
Au          11.93716543618327        4.13620809669976       11.21718636725511
Au          16.85220184405744        5.46784372251395       12.37463781425932
S           12.92252568216676        0.35148107846762       -0.26691853102377
S           16.46973341406181       -0.01245730414857        2.80417658993695
S            9.08539902319045        1.49426967009493        2.18715755091468
S           15.03640139738802        3.27305985020762        1.41567200972172
S           19.04761842102883        3.84425008069363        3.76409446502351
S           13.83158066424663       -1.80453352217297        5.08317079227424
S           18.27049491497064       -0.57883408077272        6.20638067318576
S           11.19546010204046        5.39432671608982        2.70188773337004
S           17.00953162949827        7.96422342573521        2.38636428166589
S           19.60217071868724        3.72204001729618        7.64470757629016
S           15.29160006149647       -3.09165161005115        9.15289232970580
S           10.68036975101828       -2.53280582410706        9.90961073741714
S           10.08421825154178       -0.19149884990468        7.19022493778379
S            8.37594998899703        4.06889017447334        6.27123838334187
S           10.36301327778333        7.43948166691951        5.92213631359165
S           13.76769699248011       10.47615456046119        4.70534687939885
S            9.92662445818594        2.10489586193348       10.29374915143935
S           10.62501333251993        5.95943361072562       10.42116149683216
S           13.55264095844128        8.47416809933868        7.77854292124329
S           17.77985292851383        7.11185634632463        6.94458777822522
S           17.65346202810775        1.63332411721796       10.27933683546958
S           13.47556799403919        2.47990133544298       11.91198027486064
S           14.85230150152299        6.66718809022256       12.72973906220250
S           18.94994325891434        4.40150145834498       12.26298121628374
C           14.53484784018067        2.03985279475716       -1.69105924460033
H           15.36602554245666        1.50334658797404       -1.25029514964683
C           13.23259572017177        1.68676596988086       -1.35136321896250
C           12.16894725008228        2.36855153565611       -1.93762517669838
H           11.15224861399143        2.08625360974729       -1.69180168206111
C           12.40689945572834        3.40117182790396       -2.83132815081312
H           11.56995568362959        3.92861068759596       -3.27467163047802
C           13.70868191203354        3.76422610180674       -3.15028976426653
H           13.89372136346085        4.57966604020071       -3.83949226649547
C           14.77123489073356        3.07701710180967       -2.57961170567790
H           15.79155146201779        3.35063048550131       -2.82328023257605
C           17.97359769802384        0.50342513352140        2.07159194254684
C           19.13868625628949        0.48290011370868        2.83592848872234
H           19.09673606594535        0.15937479673424        3.86967985826718
C           20.34040452144732        0.89412750997483        2.28301812884862
H           21.24118381449335        0.87744934525498        2.88566045430486
C           20.39544639494704        1.33732140464401        0.96798410856058
H           21.33534665976387        1.66892973443309        0.54291244173650
C           19.23676931561870        1.35974068803720        0.20470997878489
H           19.26563463397638        1.70445938012418       -0.82264222401510
C           18.03246244427054        0.94346875017929        0.75291577027905
H           17.13098786999936        0.95658339295108        0.15290011889637
C            7.44103055125462        3.62397168246574        2.33141892743810
H            6.96780535077751        3.06622028984333        3.13034851540045
C            6.94782254223001        4.86351707512402        1.95204243614310
H            6.09075354546332        5.27904818260702        2.46966892387828
C            7.54876273173792        5.56922042546529        0.91756402965824
H            7.16323077324528        6.53767032762762        0.62169032712045
C            8.64562668890545        5.02456059740810        0.26299416986876
H            9.12533673297798        5.56948798904076       -0.54231762638184
C            9.13886368895999        3.78560153963386        0.63923936965193
H            9.99892936605771        3.36741061002840        0.12978700806629
C            8.54141204811286        3.07400794626396        1.67432274125024
C           15.36681885578441        5.68294042569367        0.15523787733264
H           16.41182538854432        5.61457023931145        0.43265340251261
C           14.91313508624142        6.77397228114420       -0.56946389229214
H           15.60966884327499        7.55759185379638       -0.84461277330276
C           13.57720495985050        6.86358104272664       -0.93731263918038
H           13.22309300380300        7.71737523784180       -1.50257799784824
C           12.69519370155660        5.85620426234600       -0.56876694772599
H           11.64902728047979        5.91853123535896       -0.84576932975734
C           13.14306869387528        4.77121245109156        0.16744876322956
H           12.44910718848453        3.99506712517757        0.46646484243105
C           14.48281393391874        4.67714454913759        0.53214259282452
C           21.53031353996949        4.83861988323501        3.37777305429989
H           21.63294182315295        4.74446711529947        4.45224567261771
C           20.32288134240303        4.50441291613947        2.76968263801498
C           20.19030601185627        4.62558769706877        1.39130615926841
H           19.25212895579987        4.36123840327034        0.91756120483302
C           21.25569689674776        5.07580203748328        0.62589818665178
H           21.14184789836827        5.16750180490848       -0.44816502259368
C           22.46065122967494        5.40486941519518        1.23160718154853
H           23.29333438979953        5.75433923996721        0.63277630710998
C           22.59400030666968        5.28497689769571        2.60962154944485
H           23.53199101527463        5.53920907218204        3.08978281768571
C           12.70524629740095       -2.06921617029441        2.61772534264600
H           11.89817733208738       -1.45839164330974        3.00379087067816
C           13.80288038873726       -2.35236931253076        3.42729148827254
C           14.83438500921615       -3.13992062884454        2.92347661192006
H           15.69013375036876       -3.36246494566838        3.54949117265976
C           14.77027808849742       -3.63298590440599        1.63014418865533
H           15.58385781051599       -4.23905416804296        1.24811938272535
C           13.67214024881654       -3.35342191455761        0.82744360636944
H           13.62297264835710       -3.73908536041918       -0.18382574793013
C           12.63845992140171       -2.57300823925231        1.32746744551755
H           11.77735109820382       -2.34661457422346        0.70960915584055
C           19.86505489298592       -2.38420292974884        7.53370582098071
H           19.68667356698085       -1.80024702547790        8.42906054521663
C           19.26051828649978       -2.01224416880407        6.33839180418264
C           19.49536103816113       -2.75858231951267        5.18594314418862
H           19.02532503295523       -2.46774618428803        4.25414458779834
C           20.32925785311444       -3.86497699099640        5.23375902356982
H           20.50998148936492       -4.43846732412185        4.33183403029566
C           20.93291336346767       -4.23521605766743        6.42901060070582
H           21.58361929303238       -5.10093789245643        6.46439153286056
C           20.69840819473064       -3.49213568611359        7.57750398607206
H           21.16476636628021       -3.77388808486792        8.51455481632316
C           12.07708338647454        7.84029067771522        1.90607949159320
H           13.05889575086359        7.38529913283262        1.85965070169023
C           10.99138684813991        7.09035367578749        2.35271543026917
C            9.73503517858450        7.68540727823657        2.42261080719764
H            8.88997643697365        7.10790934403500        2.77760875069518
C            9.56560110241563        9.00603963521778        2.03846616505793
H            8.58285461144026        9.45942559713908        2.10060554680767
C           10.64511162773703        9.74324772726494        1.57060857270181
H           10.50932148324649       10.77297952506742        1.26239741969019
C           11.90170899953499        9.15606444785775        1.50819038078761
H           12.75285222235549        9.72447375823745        1.15113419380647
C           18.53373271952161        8.33942186579492        3.16051159916505
C           18.63436936752602        9.00303577422403        4.37909615776496
H           17.73452941612260        9.28775833273984        4.91154162527022
C           19.87730623473514        9.28595774582480        4.92315343236082
H           19.93913379468541        9.80054878375577        5.87544295941658
C           21.03430738567061        8.90922947449243        4.25457116972773
H           22.00617896915411        9.12996776381154        4.68004036224649
C           20.93828343873391        8.24939978576484        3.03638057226046
H           21.83664909519912        7.95397798015295        2.50648706577559
C           19.69651069469932        7.96033357422233        2.49261284829223
H           19.61913630362177        7.44039196953759        1.54499919673963
C           21.08556051609983        1.59376394431162        8.56062016777748
H           20.86907360229486        1.95005253834474        9.56035239246843
C           20.59421356662337        2.29052032689123        7.46104826455166
C           20.88239641315276        1.83110619114791        6.17754608330223
H           20.48901345209684        2.36007178171573        5.31695598394370
C           21.65268369796139        0.69288459508781        6.00325856528744
H           21.87041324080835        0.34104437997284        5.00135046398846
C           22.13829418210515       -0.00348024187252        7.10231265171344
H           22.73139746269404       -0.89938859377501        6.96202551543856
C           21.85278100183319        0.45194000561041        8.38163068740921
H           22.22540243079114       -0.08293443474910        9.24770796902708
C           15.42013590944938       -3.99040891869325        7.65815262822239
C           16.69573937503965       -4.19232675786747        7.13202100089716
H           17.55446391598054       -3.78565631214461        7.65231099183830
C           16.86288320065204       -4.92143034060905        5.96406470308260
H           17.85975589616649       -5.07389430231590        5.56652354498310
C           15.76055881432733       -5.45108400526972        5.30574268652071
H           15.89193836671405       -6.02077667961279        4.39344468376339
C           14.48912989166901       -5.24957994694733        5.82656881006113
H           13.62163080888048       -5.65465391826742        5.31787162733327
C           14.32021647531650       -4.52469826643310        6.99526611395568
H           13.32580093141712       -4.36657763020550        7.39572224252829
C           10.38267433554699       -3.24083327896120       11.47940954933818
C           11.21500821607868       -4.22711330294046       11.99916859525622
H           12.09384887772812       -4.53395187225186       11.44446368573855
C           10.92297712055506       -4.81596465152077       13.22033674479525
H           11.58243247095578       -5.57926884974680       13.61748404642383
C            9.79462512798233       -4.43019715476252       13.93093237020168
H            9.56844548324277       -4.88932958999727       14.88606273876004
C            8.95664541596654       -3.45206476676041       13.41037184376251
H            8.07131477472926       -3.14634921616911       13.95623153000983
C            9.24790156942830       -2.86062831044669       12.19101767541298
H            8.59544537180084       -2.09554002967730       11.78690671124856
C           10.00914493865685       -1.37494645493283        5.90322455545626
C            9.21939826521742       -1.17733325869329        4.77577670094676
H            8.63053945842411       -0.27336013788435        4.68042579145260
C            9.18436374752076       -2.13443041724866        3.77303549645245
H            8.57575092069220       -1.96175559853031        2.89284829714523
C            9.92601451012252       -3.30208225929493        3.89400180679869
H            9.90291959332282       -4.04632428638381        3.10695612462024
C           10.70268336078209       -3.50803695975883        5.02698690538300
H           11.28856336395794       -4.41439046041014        5.12901344499895
C           10.74775639871837       -2.54876595382362        6.02509360120845
H           11.36802125611722       -2.70277178688485        6.90032202396487
C            6.12924217412389        5.25050780068049        5.34932607034782
H            6.71048234648580        6.16409983283607        5.38554332758702
C            6.72362501121554        4.04167387682511        5.70439768816303
C            5.97714688847448        2.86968957104174        5.66126310559410
H            6.43785047787170        1.93007712408677        5.94301065305789
C            4.64806111017546        2.90461611072878        5.26614684629349
H            4.07499437865394        1.98506359744242        5.23517128291800
C            4.05625240811259        4.10901092971324        4.91205854409513
H            3.01811958416000        4.13500423460179        4.60260755439548
C            4.80053390849780        5.28126602553029        4.95544773961187
H            4.34437247178890        6.22635776887566        4.68382644742742
C            9.82503963184900        9.33540226974610        7.84120206339097
H           10.58813743823018        9.94273175742274        7.36971804945657
C            9.15296759232085        9.80809852830108        8.95900417900775
H            9.40209617880673       10.78414666843526        9.35942776158825
C            8.17091661079953        9.03517032958865        9.56228260413538
H            7.65114700187828        9.40125079786383       10.43975042612100
C            7.86433259500948        7.78599907498550        9.03833673465924
H            7.10099211612508        7.17498978870906        9.50650540557928
C            8.53649425891410        7.30818461355496        7.92540951305069
H            8.30887554374910        6.32367895547983        7.53303887240271
C            9.52313364684776        8.08225223553165        7.31749681284172
C           13.81564078758185       11.96937896396820        2.40697478840892
H           14.81149118016852       11.57363436670390        2.24611360287307
C           13.08454956280888       11.56195281382024        3.51844859806928
C           11.81120449560543       12.08502071213013        3.72661901370307
H           11.24101247272706       11.77344477978343        4.59391757798692
C           11.27288555626377       12.99332601021177        2.82851527662096
H           10.27911143551616       13.39125052322432        2.99972976679109
C           12.00157593782391       13.39065378269275        1.71450897645177
H           11.57859971327109       14.09768456704079        1.01062930298387
C           13.27471273275990       12.87696406458378        1.50879272288453
H           13.85201402616605       13.18203638492130        0.64338521367158
C            7.83789549212959        3.73910438901154        9.71518252228258
H            8.52064160680976        4.54745588068751        9.95027463183290
C            8.27719420981516        2.41914218182423        9.79663369507001
C            7.40168312945692        1.38863426827721        9.46863199668248
H            7.73647781257762        0.36055052613678        9.53473784822523
C            6.10587567031061        1.67234699499055        9.06241301092469
H            5.43638587945893        0.85952572315516        8.80520179285491
C            5.67100886782469        2.98776143553821        8.98309260138725
H            4.66115406629855        3.20970127631672        8.65900099899643
C            6.54158700449789        4.01791835252001        9.31430217929762
H            6.21035107145754        5.04816964778620        9.25094139689554
C           10.26838133481376        8.18584796778688       11.99436417559236
H           10.93632889797940        8.70385714954212       11.31612133372353
C            9.99018088173133        6.83910897239518       11.79040048563249
C            9.12591054386396        6.17507576903350       12.65789804155061
H            8.90771252354093        5.12598014853212       12.49801921612164
C            8.54702345931738        6.85672727093363       13.71714537056621
H            7.87244771523847        6.33392205693897       14.38547655307954
C            8.82612885143046        8.20251546093951       13.91957023459868
H            8.37337041714729        8.73317862372119       14.74875803359310
C            9.68770128920357        8.86410552314427       13.05574181709226
H            9.91153467385040        9.91396526568878       13.20617462519108
C           14.94633381978846        9.20118204277420        8.54699322658869
C           15.93782494321847        9.75673037374667        7.74241771730462
H           15.83774004490080        9.71461392010522        6.66421090257529
C           17.04949237424483       10.35078701609041        8.31663833676050
H           17.81910580579570       10.77328745132579        7.68075310125626
C           17.18470606758046       10.39141499032061        9.69852664411120
H           18.06073450833663       10.84472713900255       10.14688054080001
C           16.19497180674986        9.84139089540761       10.50232923104152
H           16.29112073563184        9.86580256694736       11.58177170435334
C           15.07717453583525        9.25259735800216        9.93034957005670
H           14.30414343556819        8.83282269745765       10.56235444572512
C           18.74876086317191        7.55688990604959        9.44881554325127
H           17.71302958473718        7.56473692880150        9.76625856362673
C           19.75754255487736        7.81743194732205       10.36282636521864
H           19.50166325069678        8.02795218839274       11.39482359324142
C           21.08596709384200        7.80450588311569        9.95954387920055
H           21.87395228821247        8.00183699738520       10.67653965711022
C           21.39862238550534        7.53028782222173        8.63480791404897
H           22.43352261596601        7.51121225009513        8.31255580272657
C           20.39138480104551        7.28510152418453        7.71518935793133
H           20.63629408375769        7.08175140076556        6.67934712995770
C           19.05802042952591        7.29983920813592        8.11565543788742
C           16.97655864689611        0.71327907785872       11.60460304971976
C           16.90390508873477       -0.67494313904247       11.56531577014906
H           17.26452216349100       -1.21018285530415       10.69540059413518
C           16.37094203791549       -1.37533890476205       12.63683082279726
H           16.30840069093374       -2.45643863505331       12.58874923721792
C           15.91783129574054       -0.69678308001794       13.76040150603696
H           15.49658370224897       -1.24472434035991       14.59479968167293
C           15.99977740918164        0.68912030087598       13.80544199255899
H           15.64323220189713        1.22810429400280       14.67580178758609
C           16.52247210006158        1.39175256596341       12.73236668837089
H           16.57149037656849        2.47398414186533       12.76195064179523
C           12.54097257963148        1.21887562866637       12.67113076484939
C           11.44753548793882        1.52931182879335       13.47450422635792
H           11.12706497669633        2.56023679666992       13.56484617293757
C           10.77507210605437        0.52773256033282       14.15628934575895
H            9.92290094868448        0.78174382948686       14.77637348745111
C           11.19238364563331       -0.79231182157863       14.05162918681053
H           10.67072782830455       -1.57342009226438       14.59156025875388
C           12.27693150824554       -1.10721079114083       13.24390044069938
H           12.60697088094979       -2.13537464533636       13.14920677450027
C           12.94225135298246       -0.10935644412423       12.54955591287656
H           13.78612422455848       -0.35784758341026       11.91750878197098
C           13.86645413454817        5.67156091383356       13.77597783886422
C           14.34562189679946        4.53329055641791       14.41591299524546
H           15.36919985445029        4.21812440962828       14.25111803281853
C           13.52153273360049        3.80045468826968       15.25475639677538
H           13.90738218352847        2.91210791583137       15.74199944499291
C           12.20732741686923        4.19657658646118       15.46555294750888
H           11.56454484072419        3.62435763809225       16.12397452249858
C           11.72343917483254        5.33271372555983       14.82992656752683
H           10.69938527648015        5.65105911684233       14.98815318020597
C           12.54559541395199        6.06582436764890       13.98718430190744
H           12.17382369747762        6.95768037331762       13.49749924841883
C           21.47760566073137        5.38727612267335       12.35651980616744
H           21.71969566254186        4.59280503858563       11.66040930727702
C           20.16357854635901        5.54358587099313       12.78950219505174
C           19.85801402914708        6.56164002760209       13.68738672376679
H           18.83876229992125        6.68157228923354       14.03513131214879
C           20.85114426872667        7.41950055247725       14.13580281068575
H           20.59931815351244        8.21245224775270       14.83081422729032
C           22.15908254328633        7.26561094544611       13.69696364133860
H           22.93390986139675        7.93791600589364       14.04606757731097
C           22.46907656894489        6.24454296537917       12.80755876178275
H           23.48820829678463        6.11394285101955       12.46180017433628
