396
 energy: -679.218417392432 gnorm: 0.000526514665 xtb: 6.5.1 (579679a)
Au          12.68174276791883       18.03696970439770       21.54759435464287
Au          12.12322679203704       15.20350518195087       21.24058948044580
Au          10.68423767825973       17.14640887864181       19.39724238594719
Au          13.62443943279206       16.68844988984334       18.98352882072164
Au          11.28340484322080       16.67200793479993       23.53537731430907
Au          13.97026819785446       16.07324033383951       23.14060019520159
Au           8.09368673914685       18.10908101020733       19.17471385488590
Au           9.84183534760455       19.31166517817423       21.12879444264567
Au          11.64483343206923       15.77185515508543       17.18267740971404
Au           8.86400211345456       16.80715642958025       21.63509608509692
Au          14.74398598952803       14.19023779203764       19.89753861177569
Au          11.94375456699617       13.24201845308887       19.00583737811229
Au          16.06193419365537       15.81772889967332       17.94244914640247
Au          15.91419390215977       16.50146441833748       20.76226896146119
Au          14.86300658420336       19.37505768871180       20.24331372067324
Au          13.56101317528777       20.47355397823593       22.53331818452560
Au          12.19714654746605       18.52176394305351       17.44767566308867
Au          12.37973755365315       20.45595990657285       19.87047648835428
Au           9.65625970741889       14.20827070112295       20.15982030214706
Au          10.01371362250804       13.88260707177894       24.12010215623538
Au          11.36404312697408       12.59034650089214       21.77423807999923
Au          13.59722153498999       13.07951195669895       23.62999334294653
Au           9.47265993856385       19.89337840988458       17.13530835157454
Au          11.80769593844442       19.46655802494363       24.67217760957078
Au          14.18805517742501       14.60706110898505       15.91431121773047
Au          14.99472625615091       18.18224628964439       16.39238643834290
Au           5.87901527069517       18.68914759967910       21.02646925283195
Au           8.69618251670362       16.29963012394182       16.85353174504013
Au           7.85017898239867       17.77284361440172       24.25024413115254
Au          15.39649916320397       18.67039503667150       24.10230146809126
Au          17.41185061956873       14.93186950934544       22.79355386139943
Au          18.65190247518889       14.99370650987504       19.09430836359293
Au          10.36442512113558       12.38906012525864       16.67388095824222
Au          13.42544872797180       21.95712447846956       17.55178241786376
Au          11.04119511484978       10.34594344010455       19.86924572377572
Au          13.48568158078051       23.11701617556825       21.23694639284680
S           16.05695846642644       15.92498194182343       24.46664809729461
S           19.21006754235108       14.47412347898747       21.32772976699386
S           11.94230417088501       13.21954583197369       25.33760092176810
S           15.39496063788118       13.01194123493284       22.09194425219074
S           18.29268236627008       15.50912376173097       16.81794428444450
S           14.04915006261521       12.97678168147750       17.66396583268152
S           14.29114244953497       16.65957533871365       14.70396789108232
S           11.89106836018006       10.13087502521510       22.06629781165823
S           10.01924498877604       10.30881923916857       17.73397256425498
S           11.41064408212805       14.07448131629829       15.37788137868284
S            8.44736497436059       14.18953859900151       17.89790044861467
S            9.05117604810205       18.21994746073085       15.49691648026541
S           10.04170228822623       21.04605797723917       19.15544382610078
S            5.76908975300708       18.93266928746558       18.67855008338482
S            5.79114359608346       18.55347467938219       23.38414216035466
S            9.52574338302217       16.43350030930185       25.26534759519012
S            8.39807043676080       14.48970586932901       22.46906379694715
S           13.80659983031047       18.93180364563013       25.84672722943639
S           16.59952699113603       18.53948697077223       22.04405720760423
S           13.16082190490593       22.76451410214403       23.55978778060744
S           14.02399884525985       23.71290439198793       19.00953702931058
S            9.71279992591260       19.86714031464509       23.64118230759687
S           12.08920072585549       20.62400174900539       16.11822914206984
S           15.53071524463586       19.97702661644341       17.84242515699961
C           15.63778665514366       14.77210040273933       25.71537090554713
C           14.75897879641499       15.16759463093618       26.72117290866393
H           14.36863710763352       16.17902944609850       26.72759252251229
C           14.38261951352107       14.25846362362478       27.69598335342699
H           13.69476989424028       14.56185354970837       28.47691511902454
C           14.87048734598675       12.95800823126805       27.67605861980838
H           14.55717648613063       12.25271881267204       28.43740843696347
C           15.75544111939807       12.55787089187275       26.68023863924522
C           16.13541773307852       13.47461531385986       25.70256608067166
H           16.82979746644463       13.17745706387072       24.92599696648407
C           16.30936995532031       11.16019248959125       26.64531712450060
H           17.36057471541604       11.16628442728482       26.94060062151902
H           16.24679896732443       10.74942354925747       25.63657087919908
H           15.76387408644429       10.50650362768354       27.32538675496547
C           19.40297881713899       12.73837793180140       21.35163412977545
C           20.13004925534481       12.11062919560887       20.34260061281738
C           20.35501293648061       10.74495612516819       20.39832795276684
H           20.93283695757140       10.26474888486975       19.61640490579316
C           19.85314990659569        9.98916184385321       21.45035649920805
H           20.02934698800357        8.91991627340638       21.48055491460838
C           19.13040583838950       10.60608052969486       22.46655173368502
C           18.92024074648516       11.98015499493663       22.41119195288151
H           18.36781204061516       12.46736187216416       23.20599284209870
C           18.57319310241655        9.81539260208607       23.61790173066647
H           18.80416950673786        8.75560841730545       23.51427859927566
H           17.48849319464940        9.93186384328471       23.66233186458825
H           18.98856331159561       10.17438946453721       24.56114635982222
C           11.65227966686051       11.55571232388790       25.78471115000528
C           10.40639309245594       11.17790248715019       26.27705433867276
H            9.60918325616532       11.90867975588851       26.34098137099055
C           10.19100467936012        9.86871026897384       26.67509127635625
H            9.21709975202629        9.57588737751007       27.05067778451759
C           11.20762059306920        8.92820812792036       26.58130781911467
H           11.02419193833414        7.90299341960384       26.88210392744927
C           12.45739085248517        9.29586869921263       26.09002998918828
C           12.67051771246836       10.61394973039548       25.70375397323332
H           13.64055916210455       10.91387219857014       25.32646644370768
C           13.57100051886237        8.29120395526081       25.98108997912004
H           14.17920623505571        8.30946640008742       26.88825586025966
H           14.21841127690091        8.52282914220530       25.13481448539277
H           13.17429650961295        7.28364202638030       25.85712480640283
C           15.65825321511339       11.35890736424682       21.58740866593367
C           16.38536153514698       11.13985543975057       20.42067747510647
H           16.75121740002526       11.99048830253149       19.85679011988823
C           16.63624631210249        9.85108251375965       19.96954807561033
C           16.15312307766218        8.76850436601428       20.70397871199056
H           16.33751012941162        7.75713792339268       20.35994979675286
C           15.42794789903372        8.98412656332949       21.86602245672532
H           15.04146395171623        8.14209563728746       22.42924909483736
C           15.18178946594512       10.27466940432633       22.31358379595765
H           14.60109200466967       10.43699821449730       23.21282438054238
C           17.41716895074673        9.63433629580131       18.70414791200372
H           17.39475984681598       10.52742736528999       18.07946307662693
H           17.01227470668265        8.79577444504432       18.13715034672527
H           18.45764303240959        9.40995649763868       18.94698121320761
C           18.19608392866485       13.92335905292485       16.07640032509774
C           17.37243447477834       13.73712307593916       14.96913191911466
H           16.78042615618246       14.56185591280302       14.59839905536569
C           17.33178803854020       12.51047036418781       14.32513281071106
H           16.68762376235107       12.37982226925069       13.46274653844828
C           18.12016364749350       11.45983711934535       14.77018609646047
H           18.09068472394641       10.50397274408809       14.25924057745991
C           18.96225835040468       11.63583990131225       15.86621789364083
C           18.98891248061102       12.86643545717570       16.51314010573616
H           19.64770705547233       13.01375613238875       17.36092204995782
C           19.86686380203865       10.52007725716756       16.31227372465390
C           14.24828552519110       11.29542108222618       17.24198267502836
C           14.59603996097132       10.92844897293964       15.94846422233244
H           14.76315003205084       11.69816543102249       15.20359025494756
C           14.72312778804375        9.58623703887577       15.60894458034892
C           14.49182104829700        8.61270497471470       16.57951701937430
H           14.57838773266450        7.56325046575774       16.32184498551212
C           14.14854706456577        8.98139708722132       17.87231740377174
H           13.97356431472759        8.22343338393075       18.62720228148781
C           14.03402189003134       10.32073013725386       18.20952720049927
H           13.78993759342818       10.61302381571023       19.22324503558805
C           15.10932828225469        9.18571568799795       14.21219035936044
C           15.64329212998466       16.57812202931376       13.59303390207062
C           16.93020816966777       16.94243822755980       13.96536238076594
H           17.12118448064113       17.26843985437283       14.97989033021570
C           17.98917376342020       16.85326288298043       13.06757907158618
C           17.73778729356772       16.41581646792144       11.77068322769011
H           18.55034957731694       16.34058255945880       11.05687081569564
C           16.44889587861653       16.06492371467218       11.39019476612309
H           16.25975627939572       15.72366028090920       10.37861780741456
C           15.40107226648830       16.13529214521232       12.29551695975176
H           14.39769243841732       15.84963345445670       12.00420990428553
C           19.37338500717385       17.21580659306105       13.52901469794786
H           19.49141969751432       18.30138667097740       13.54689634531488
H           20.13013203718393       16.79810489233478       12.86567188514717
H           19.53985624755266       16.84117610742761       14.54112886146929
C           10.47335536024170        9.47692587163062       22.86384104630965
C            9.28974946629392       10.19221608155110       23.00633565293916
H            9.21701829130558       11.18777856488847       22.58531190719233
C            8.20140951941036        9.65076591739464       23.67931949956853
C            8.29997553100951        8.36243918201740       24.20120918546236
H            7.45771112459847        7.92559522580199       24.72576989812058
C            9.47505721530296        7.63935823786529       24.05154272190890
H            9.54711207570823        6.63672807430962       24.45801235984611
C           10.56218036069320        8.19119446172189       23.39069890452524
H           11.48279341362656        7.63129419447095       23.27953313241074
C            6.95023473375267       10.46342979972852       23.86911325247911
H            6.87788669583583       11.24752409106280       23.11523157017674
H            6.96522057001922       10.93872549128337       24.85255978421054
H            6.06205449116287        9.83402699180318       23.81256129507495
C            8.31450948338727       10.20805336499608       18.08999961831652
C            7.38013591273138       10.70046672464465       17.18362544735850
H            7.71501821782998       11.22514572022653       16.29706995314941
C            6.02680623214609       10.51047641014603       17.41412223413115
H            5.30336147019126       10.89717264417574       16.70514786086783
C            5.59425311796588        9.82625795947247       18.54090366027803
H            4.53417176947401        9.66644107521004       18.70268048203861
C            6.52008446644593        9.34209487013904       19.46336140395976
C            7.87470587745817        9.53995492197021       19.22873746602410
H            8.60344526700474        9.15693297742194       19.93420934175382
C            6.06655795489053        8.58702883743501       20.68258005791861
H            5.19884139086400        9.06785132164960       21.13539875832488
H            6.86437108196950        8.52864112040571       21.42301309447606
H            5.78114683065735        7.56994753025994       20.40541590244387
C           10.29873904537521       14.84330365008586       14.26640304183693
C           10.77428797760537       15.85771334331263       13.44079836639410
H           11.81940392360424       16.14369429158655       13.48302101188784
C            9.90019245368483       16.50532850830270       12.58146185583291
H           10.26905907960660       17.29269779902048       11.93395967490494
C            8.55475208339487       16.16687301652277       12.55471114391420
H            7.87677817049386       16.69616950570039       11.89467827460939
C            8.06960546559245       15.15658226783806       13.38182855678984
C            8.95246603159052       14.49150906472482       14.22697016137220
H            8.59565666493927       13.68563833613979       14.85672346026556
C            6.60606582292500       14.81256667310325       13.38398870079732
H            6.02907806780529       15.65686243299823       13.76743022559790
H            6.40862692643382       13.94471748527648       14.01284979657693
H            6.25965704383088       14.60084208598945       12.37158272426929
C            6.74620696035534       13.99437666226984       18.25797752615722
C            6.36664723108914       13.21807093615650       19.34909119721195
H            7.13194732783149       12.75489951978996       19.96152950971425
C            5.02457463508236       13.03407478132271       19.65751759794651
C            4.05474886354896       13.64311918824396       18.86158250019233
H            3.00441642453990       13.51113422431433       19.09563708625197
C            4.43075619265676       14.41193172255310       17.77029095298118
H            3.67453574619954       14.88271070854906       17.15197282812672
C            5.77145885038885       14.58384790589354       17.46175180923263
H            6.06222543123821       15.17830514899380       16.60436714439169
C            4.61633897527342       12.19012478035304       20.83249149715774
C            7.49408195751732       18.54068132852726       14.76257958171033
C            7.46756331775653       19.27835962189841       13.58191777375843
H            8.39491461668631       19.63701765914923       13.15234884234343
C            6.25278490550721       19.53990654881705       12.96576851471919
H            6.23235841425552       20.10954639141109       12.04354278407996
C            5.06461978120760       19.08564692058259       13.52358767357430
H            4.12115318623810       19.30781688844940       13.03791683700527
C            5.08231679614353       18.35645833694456       14.70865277883980
C            6.30541958103448       18.08223617474408       15.31368152615315
H            6.32531178530382       17.52949511446588       16.24459524823270
C            3.81792203481363       17.87268525055865       15.36234064290394
C           10.12861233267675       22.78997821994979       19.06871984518573
C           10.05514060680862       23.43732050750527       17.84279212298246
H            9.89694703847926       22.86313686627809       16.93827892518734
C           10.19399583223496       24.81707330963760       17.78880044301288
H           10.13851718552875       25.32306977589604       16.83173611195846
C           10.42018806038254       25.54442043364492       18.94683317272239
H           10.54345583307889       26.62018504226221       18.89399872440871
C           10.50164495595359       24.89881363706212       20.18028476528360
C           10.34600818319235       23.51820432579922       20.23412069940613
H           10.38891942291840       22.99939738680363       21.18431869560010
C           10.75856724437774       25.69145654944072       21.43112796891834
H           11.57738383056105       26.39486925710247       21.27601407131450
H           11.01177534766034       25.03502628734673       22.26264820273584
H            9.86894543583919       26.26378668721219       21.70126520213926
C            6.19360711205985       20.61319118160037       18.41622830017315
C            6.41683135755524       21.01790622706691       17.10038470873740
H            6.29358149420122       20.29705568217969       16.30324814521293
C            6.76200836019827       22.33129516472139       16.79987553610542
C            6.88152034822973       23.25461969773430       17.83643124343175
H            7.15502379684877       24.28100545669064       17.62035371783085
C            6.65736162207102       22.85814986038030       19.14655345704382
H            6.75505103021611       23.57755023195943       19.95199554730051
C            6.31611659884318       21.54707512272354       19.43869810285302
H            6.14587453245018       21.24815955743935       20.46579261551630
C            6.99262771471639       22.74484247532669       15.37235981700866
H            7.16715106084170       21.87486317961734       14.73878721363930
H            7.85133796510458       23.41296305797123       15.29891418138859
H            6.11763815748014       23.27618782840255       14.99218702815531
C            5.72146026464011       20.22614241212875       23.88369691015831
C            6.35357125651719       20.63954625812053       25.05086265916097
H            6.92605158336931       19.92274135011705       25.62811167862621
C            6.26788017272413       21.95777420760994       25.48553430064008
C            5.52441574949449       22.87050791633629       24.74328092463171
H            5.45341647978592       23.90288453434037       25.06631834981338
C            4.87480142616531       22.45967714119537       23.58691551589695
H            4.29160154443566       23.17053980209285       23.01246954507637
C            4.96911374639321       21.14604718443551       23.15685105491157
H            4.45277158042216       20.82855129429246       22.25941621509823
C            7.00004915072229       22.38034966153005       26.72928032223794
C           10.22909662395417       17.23705806742064       26.65204476083789
C            9.75688236439952       18.46620142566532       27.09560462174936
H            8.91230152298554       18.92519125635345       26.59592485406826
C           10.35310310778146       19.10741947892006       28.17920557388730
C           11.43200430956599       18.50191547965717       28.81472579648148
H           11.91297611593409       18.99398818136413       29.65245713904686
C           11.89773933049017       17.26821902159793       28.37767043933263
H           12.73762367725412       16.80256504668710       28.88044268085678
C           11.30381200783061       16.63233322791274       27.30029647642412
H           11.67265747736048       15.67441221348738       26.95150145990334
C            9.82017612650815       20.43546944616052       28.64152998896979
H           10.46322499245617       20.87054081377576       29.40592325033285
H            8.81846376064438       20.31443311976980       29.05838304220255
H            9.75182721819508       21.13021436574522       27.80279534114651
C            6.71621697976857       14.51649143781079       22.94107717953770
C            5.79264186969294       15.12339825955541       22.09660604865189
H            6.12760420700248       15.53283997009514       21.15043474241051
C            4.45507501695102       15.21482575665425       22.45954162740196
C            4.04651972672333       14.67518678739802       23.67932545693164
H            3.00617798541615       14.74213835334615       23.97648474714919
C            4.96679294275228       14.06225382028664       24.51624752606960
H            4.64402693093542       13.64903123197071       25.46512696156532
C            6.30449580744952       13.98386390560895       24.15571120510043
H            7.02891901881802       13.52611866547706       24.81865070828210
C            3.47195387398239       15.91371009569272       21.56283209217699
H            3.85365642603647       15.97846098350902       20.54391584001357
H            3.29631632611529       16.92712935228014       21.92958075974681
H            2.51596227981781       15.38962870837105       21.54974395577376
C           14.26087391849447       20.40775270839027       26.66228095742850
C           13.28782715990723       21.26564399343405       27.16375676961625
H           12.24242294145235       21.03144689419541       27.00295223496068
C           13.64304629825043       22.41218799141710       27.86289548556081
C           14.99275457232929       22.69553655414724       28.06326814989785
H           15.28226905428033       23.59081977744157       28.60173471237551
C           15.96546693447353       21.83879175837599       27.57005640626439
H           17.01455263679301       22.06506037793219       27.72314322085198
C           15.60521200221405       20.69746893444302       26.87189654894656
H           16.36565518204779       20.03025492316270       26.48424917718955
C           12.58918876027909       23.33914305686331       28.40193295735359
H           12.77057185129500       24.35957657018858       28.06095166780325
H           12.61069329472574       23.34036272448648       29.49334418020376
H           11.59565792827921       23.03214147506856       28.07622033450767
C           18.34383461472964       18.46874502025063       22.11078730255214
C           19.04600864544396       18.13364531192430       20.95794692220164
H           18.50192388045578       17.96095769911562       20.03639425656820
C           20.42957027917064       18.01298024973761       20.98204418006599
C           21.10851741387311       18.24781925065772       22.17775202743255
H           22.18803907304465       18.15493486230232       22.21135956232057
C           20.40784899211864       18.59042177897658       23.32438163730375
H           20.94085263525233       18.76688079276451       24.25178037466466
C           19.02457268701626       18.69741232142127       23.29940812207584
H           18.47347198407466       18.94196644360346       24.19957513986299
C           21.17722059877943       17.60468785195008       19.74368973698222
H           20.58118677143882       17.79239166060788       18.85068035355629
H           21.40498523510088       16.53759255548097       19.78686339915447
H           22.11935151668731       18.14709857036620       19.66076812060621
C           14.74261297691354       23.22443198709412       24.15988332163808
C           14.81647133215846       24.29751587750480       25.04373640439253
H           13.91226619605319       24.82747473883662       25.31809742856995
C           16.04241341854154       24.68118292827046       25.56599654518204
H           16.09414501999722       25.51931032534411       26.25195226483590
C           17.19965179040038       23.99695440308737       25.22239977147555
H           18.15295258319786       24.29872322322928       25.64131005064737
C           17.13742049602028       22.91967589766254       24.34042467664096
C           15.90768429970182       22.55046527989555       23.80995569167941
H           15.85319244364660       21.72293829727047       23.11294803074023
C           18.37582419692160       22.14060260996152       23.99280620891371
H           19.23430965871876       22.80215537254405       23.87572038643055
H           18.23432450261030       21.57640861024263       23.07095188584364
H           18.60289997188351       21.43280266376857       24.79315701916203
C           15.76629504542928       23.79155189921677       19.00446443150802
C           16.47274729509080       23.57130532513666       17.82577356004239
H           15.94455449187691       23.26405812062296       16.93134169061964
C           17.84628188154496       23.75406064476866       17.79829768286088
H           18.39149696557777       23.57997508791464       16.87745225677965
C           18.52431343771917       24.16212371910724       18.93774593703396
H           19.59609627904506       24.32168564265301       18.90146832385670
C           17.82967258945326       24.37037402342752       20.12805866436793
C           16.45397447824641       24.18084648275407       20.15006729607956
H           15.90248739317761       24.35167437953567       21.06780514285942
C           18.55215705359439       24.82335986935530       21.36702604229290
H           19.47077488320098       24.25272118443656       21.50841550720859
H           17.92370405108634       24.70470645040601       22.24963705143183
H           18.82200904474083       25.87767463457140       21.27671636111418
C            9.38396903068158       21.58278477155842       23.69029871503244
C           10.05097897951683       22.43188466629481       24.56204953062766
H           10.82318549039037       22.03574184343604       25.21098440079484
C            9.75870254561570       23.79307373001796       24.59118976728508
C            8.76250253388103       24.29348500114560       23.75853770019788
H            8.51153372114406       25.34766864146529       23.78579015947509
C            8.09410987798926       23.44514383950417       22.88495268131287
H            7.32528670049054       23.83949385550517       22.23053256057620
C            8.40885403514677       22.09785019544766       22.83894363175026
H            7.89580032199875       21.43788343490706       22.15030782067802
C           10.53701429303802       24.69543208215899       25.50689677587439
H           10.30658331267192       24.46933545388205       26.54953455458539
H           10.30413008963497       25.74305182542792       25.31899758260089
H           11.60677554235153       24.53822141145196       25.35387227051480
C           12.92144554304461       20.19687662492238       14.63971114316689
C           12.25445319260410       19.41062644651726       13.70483451575945
H           11.23502133789220       19.09381620565822       13.89518175582763
C           12.90820202416459       19.02620884900102       12.54443394351726
H           12.38966429127917       18.41680087845991       11.81294332275112
C           14.22542452023609       19.39986139277443       12.31883778051197
H           14.73333555478876       19.07422788262808       11.41803959583214
C           14.90153044916614       20.18304353598954       13.25145954227647
C           14.23699173734349       20.58670845977439       14.40535407273392
H           14.74079566273071       21.21719470253831       15.12790198683082
C           16.33953304200013       20.56016604484573       13.02749424886835
H           16.96288385796582       19.66357572574420       13.04149243572660
H           16.69204192222979       21.23891696121380       13.80379876836281
H           16.46362463784072       21.04058857435518       12.05606219919320
C           17.27292288092604       20.13645012037314       17.84286645012522
C           17.91058701318089       20.63422455124056       18.97555742396251
H           17.31737356104700       20.90418388608665       19.84190408176227
C           19.29121669455921       20.78681735281735       19.00424980230728
C           20.03806649624513       20.42862177698671       17.88224029345011
H           21.11654092614751       20.53883114085163       17.89466996614956
C           19.40406386494532       19.93762917216020       16.75068188813833
H           19.98691328239989       19.66169628774634       15.87894545967802
C           18.02509574948821       19.79709903722101       16.72450825997947
H           17.53176402665763       19.42153335968505       15.83663826520069
C           19.97722507195201       21.33211672340284       20.22557025946820
H           20.43714460918229       22.29552723620365       19.99968541269963
H           20.76576206291425       20.65549899361173       20.55710070411298
H           19.26758950778340       21.46774566789556       21.04106661614236
H           20.52698277110313       12.69650642260230       19.52273099283268
H           20.75812329567496       10.49407044839751       15.68121173712862
H           20.18610124737481       10.66376588928021       17.34406121384345