612
 energy: -909.637160965750 gnorm: 0.000722845248 xtb: 6.5.1 (579679a)
Au          29.46519030944740       21.57554211705031        9.03330581205442
Au          32.83172540351599       17.74984066520787       10.29681163087708
Au          30.48931397463503       15.65157706902363       10.73185956626349
Au          30.52610209108277       19.70391262077061       10.79199852874617
Au          33.12304579867003       20.27823784515435       11.49201041752777
Au          30.17383517082896       16.94646490805400        6.35654152714206
Au          29.40286598062986       17.49045018122052        8.94669822432566
Au          31.41573548963282       19.04845800371902        7.88594493878000
Au          31.67355128120218       18.16810021260885       12.80299843041572
Au          26.72032906086169       22.43649667530373        8.15601538831589
Au          28.87785306437030       19.43562583728657        6.70509213057122
Au          32.50614424252365       22.20235898087445        9.27729080633234
Au          29.87015586547620       21.91273793928212        5.32713380737881
Au          31.45572175648089       14.82356744217257        7.99935028403374
Au          30.17539833675329       14.95024931372127       13.81582238458667
Au          35.86272053267350       17.75279025106422       10.91933203383555
Au          34.30222804263178       15.13286066860284       11.26144138089674
Au          30.02429806078304       18.50789902918752        3.79355539814742
S           29.63774489574944       13.35676719465273        7.71295702637171
S           32.18153642772684       14.18124606807656       11.76913375160868
S           30.40302927140674       23.08806136724789        7.29761823635774
S           33.36150261958867       16.08522306188548        8.52604843955061
S           29.74908879249506       20.78826066264212        3.26146428533410
S           27.13021095617694       21.19863024390186        6.19004321391239
S           30.61148184420650       16.23358031778730        4.00950407866033
S           31.67372818004945       16.56806828939024       14.67811408242515
S           35.60637813908625       20.03023573412323       11.52336357093300
S           36.61668073056101       15.51197413358952       10.83506604905032
S           31.81655677107329       23.84773061791645       10.84366110690423
S           33.34404456720934       20.56920686837022        7.79618985274425
C           33.28170369364449       24.74184600647931       11.17255116604309
C           33.87487216242904       25.45442101280331       10.13209719528921
H           33.44970686667989       25.40335944561243        9.13682037937526
C           34.99620924768537       26.23120813202270       10.36853756559093
H           35.42326920895837       26.78305770849811        9.53890016294907
C           35.56856114528959       26.31603209130450       11.64094348390028
C           34.97183247837545       25.58971003863715       12.66878388974913
H           35.37458229902691       25.60883811797055       13.67350190486803
C           33.84094386899755       24.82006389759774       12.44004362765691
H           33.38698144231849       24.28058055504866       13.26215141076607
C           36.20831261950036       20.96065047136628       10.17768486810713
C           35.91652224659117       22.32138076487173       10.09697778085402
H           35.29508556417940       22.78203554845303       10.85603604374030
C           36.43219306719252       23.09069371005785        9.06767196181189
H           36.17773773426992       24.14423825674865        9.04004549394460
C           37.26531798790406       22.53958995405684        8.09030093548877
C           37.54145359704766       21.17674684137582        8.17574137191622
H           38.17638205588226       20.68951426582799        7.44626917836972
C           37.02281232916437       20.40136616974392        9.20064296570414
H           37.26878201146737       19.34694842464106        9.24703357168270
C           33.98952794829166       16.89080768022027        7.10919363494905
C           34.93768784030585       17.89810329856896        7.25954109014587
H           35.20647293595909       18.23845510933556        8.25225591615501
C           35.54488520290037       18.46831149121589        6.15490864569060
H           36.29496279650247       19.23073271199921        6.32581399785674
C           35.20184566918096       18.08144018059592        4.85806461420857
C           34.20894913079761       17.11134921459793        4.71805579078131
H           33.88021276653173       16.78660155372820        3.73880338721182
C           33.61987242494160       16.51716260822032        5.82406154194243
H           32.87786473441770       15.74270735217051        5.67819704026762
C           36.59215411006681       14.83038914227459        9.21911657175303
C           36.88078175593014       15.56228293141412        8.07463351264647
H           37.15567474571950       16.60698382783050        8.15662255630564
C           36.79319132789379       14.96594279616633        6.82578130261402
H           37.00071105601103       15.57430726001229        5.95239097909581
C           36.43168479376477       13.62465244153461        6.67917690882945
C           36.20537078937942       12.88705965197386        7.83979124571035
H           35.95104967803323       11.83564574151068        7.79335533343156
C           36.28599649506156       13.47861472141032        9.08938152560120
H           36.10459305569943       12.88554189863855        9.97757222360752
C           32.06227023867253       12.73030958545796       10.79533879557369
C           32.90996383988647       12.48884637071138        9.72114798480091
H           33.68765722922797       13.20195607470957        9.47987600679048
C           32.78737899732355       11.33276744164538        8.96411293578402
H           33.47387138335682       11.19652725104918        8.13764917557608
C           31.81739231820982       10.37893410570599        9.26069834971615
C           30.97308104479053       10.63374020527230       10.34417536331169
H           30.21188478942751        9.91372702202244       10.62035481093793
C           31.07990165124988       11.79153036459261       11.09451947580171
H           30.39461649752978       11.96780859759499       11.91567921836435
C           30.02143577055027       12.38728667461742        6.31111316549641
C           31.29987169506379       12.33736832791393        5.77320838685439
H           32.07996025242834       12.97118036762930        6.17811310774044
C           31.59644465283215       11.47590296206489        4.72741700433788
H           32.60826517974360       11.48042252374966        4.34232798305626
C           30.62675652140113       10.62854077564094        4.19460650775557
C           29.33853575114479       10.70005422270410        4.73250855537639
H           28.54975096821235       10.06391497532072        4.34716510563028
C           29.03459010176501       11.56652188780460        5.76930398173862
H           28.02777964358502       11.60219386915030        6.16826825069500
C           28.08413696388589       21.00122970186220        2.78500063960475
C           27.34349326403894       19.96403178854166        2.23396821710892
H           27.78761546536215       18.98061700202318        2.13327335979379
C           26.04203238926976       20.17740318670717        1.80486766105851
H           25.50510367280854       19.33635852583295        1.38438150659814
C           25.44317936216077       21.43103160446767        1.91061389609736
C           26.20197670801127       22.46824105965349        2.45788116185608
H           25.78413012125330       23.46407976478276        2.55034175883686
C           27.49892942189550       22.25948088990368        2.88973629182341
H           28.06757007427789       23.08099087799453        3.30939130969198
C           33.23897548433823       21.35259149408634        6.24280154015398
C           32.93021101766801       20.62514450760872        5.09660508613266
H           32.70410838927650       19.56829383502056        5.17281283950330
C           32.92138848884727       21.24299353197960        3.85550688943348
H           32.66665091488642       20.64543164108777        2.98860800785935
C           33.21541276296661       22.60130864845503        3.71206498130276
C           33.50339009211230       23.32154190673591        4.86963780654744
H           33.71922998972936       24.38158305160800        4.82777765416230
C           33.52148978580058       22.70723100753697        6.11168797106188
H           33.75011209389707       23.29145369716983        6.99488417724414
C           33.18503875927039       15.70371411817634       14.60692735676896
C           33.24181767225512       14.36254543383512       14.97601628630254
H           32.33618632505838       13.85953679644471       15.29259852656370
C           34.43355175071634       13.66302874976836       14.91671662520063
H           34.42909796262123       12.61394441662639       15.18940173850132
C           35.61603063160904       14.27789339053599       14.49883597852755
C           35.55358018819994       15.62674241935488       14.15757257674392
H           36.43777315942470       16.15095929701457       13.82267139252085
C           34.35742701546723       16.33304744562473       14.20799472115935
H           34.33830569527429       17.37863634008380       13.92641400922985
C           29.38385353230290       24.50505859475314        7.41745653342554
C           29.62728820631519       25.41924740475833        8.43833204362119
H           30.43634285892851       25.24467895632257        9.13875899717197
C           28.83595131780559       26.54633203158173        8.56441210394632
H           29.06995068578812       27.25090440583421        9.35322153695868
C           27.76030760149883       26.78924332367756        7.70684445679336
C           27.53093017600316       25.86956548230188        6.68642968534056
H           26.72262230977817       26.00877603705361        5.97931144894363
C           28.33446198803384       24.74675415553812        6.53826623429589
H           28.15051069107750       24.06110817572170        5.72019010104479
C           25.54536149362777       20.61265167140741        5.71893948539478
C           25.38948424034226       19.45626780846423        4.96559445517434
H           26.26140855704225       18.90611998569456        4.63329906386377
C           24.12107290492466       18.98197538425798        4.65475478153528
H           24.05365025447261       18.06648430933151        4.08008860889912
C           22.97215716948639       19.64172651094224        5.08925616642434
C           23.14458330956800       20.83095152784819        5.80244905473809
H           22.28598669917780       21.39143731374863        6.15345487194151
C           24.40520906447268       21.31189355035106        6.10308795332990
H           24.50224223940100       22.24004546668877        6.65181202033867
C           29.17487695757116       15.36474181425280        3.51939538784821
C           29.31017680942516       14.01115899441521        3.22288972924885
H           30.28172439260429       13.53974561910321        3.31314026603048
C           28.21419432326946       13.27469313092877        2.80867566880764
H           28.35845878846509       12.22584582998361        2.57963831233592
C           26.94796435526500       13.85117651123146        2.68484653797767
C           26.82664310403354       15.20707432399507        2.98065509320610
H           25.87295022737194       15.71434965103188        2.90374109255585
C           27.92185129769870       15.95061339759498        3.39119224448414
H           27.79093587938515       16.99929716419719        3.63089778365219
C           36.78592710367352       27.20418469039552       11.85749917771115
C           36.38819142002620       28.65980665829632       11.55187918266044
H           37.23690819076913       29.32389689699041       11.71744698234883
H           35.57043324796900       28.96767417052289       12.20449662579117
H           36.06315975475430       28.76560714852454       10.51719832405779
C           37.91402986309395       26.76201398208109       10.90894472611991
H           38.81012927505788       27.35662346533596       11.08841973412912
H           37.62159272332514       26.89154431232356        9.86747277978393
H           38.15246078134075       25.71120494696536       11.07535591020594
C           37.31514121124374       27.13843034299694       13.29713012454373
H           38.19089204591432       27.78162815500530       13.39103612945767
H           37.61036774259006       26.12184524546149       13.55765272177755
H           36.56360181201411       27.48470598418135       14.00686772190832
C           37.83905419110681       23.42914788907206        6.99421509668807
C           38.56482723770677       24.62432400044511        7.63773254892038
H           39.33098623211556       24.27163425659456        8.32850546914414
H           37.86672103314942       25.25600303503005        8.18578420171012
H           39.04092285111255       25.23218475686696        6.86773375240220
C           36.68920028397161       23.94123742059259        6.11087925451915
H           37.07578918809497       24.58926770260783        5.32360577656471
H           35.97005946811539       24.50716907667801        6.70272160183282
H           36.17370186503712       23.09987540712669        5.64756322842291
C           38.84336194773874       22.68844925669535        6.09990578310775
H           39.67597028784580       22.30042485673825        6.68694978180545
H           39.24237971686225       23.37703421741894        5.35405852178908
H           38.36481372236442       21.86283547439540        5.57304885131265
C           35.96185361207557       18.63063614706603        3.65829148328817
C           35.15236328258624       18.50494541630623        2.35851377885379
H           34.16910240952250       18.96073513451711        2.47377102710805
H           35.02422790246146       17.46181434769482        2.07010560770931
H           35.67556961820300       19.01420437581996        1.54861086037688
C           37.25387949135314       17.80166819751681        3.52571072027837
H           37.01152552118389       16.74972436684390        3.37083369697218
H           37.85314732553937       17.88880038248298        4.43230909332703
H           37.84432929154040       18.15349924678614        2.67932930028338
C           36.33174094857375       20.10986802149377        3.85572594958503
H           35.44491063387953       20.69457619354231        4.09578078866616
H           36.77254599861092       20.50678872915161        2.94077502430774
H           37.05905454862559       20.23369462975517        4.65744591112100
C           36.29911121890328       13.02029027888906        5.28653161527850
C           35.22902049687739       13.79747002952254        4.50118692140599
H           35.51948363900419       14.83952236263156        4.37467631582724
H           34.27814856332405       13.76568144052094        5.03419209701941
H           35.09011372179347       13.35613106871121        3.51375785985387
C           35.88013637281320       11.54302573663413        5.32176280336062
H           35.78884431045853       11.16751221240225        4.30167425339470
H           34.91388162911285       11.42418377539273        5.81345582839830
H           36.62086134755043       10.93536705081720        5.84166088136505
C           37.65129600479911       13.12712500610237        4.55987198895528
H           37.95191086099707       14.16875105753208        4.44955760275078
H           37.57955393865048       12.68261479810705        3.56675933909474
H           38.42207966690620       12.60137453255455        5.12387600473417
C           31.66872005673439        9.07791829425667        8.48241603186641
C           30.21717504363806        8.92826522791187        7.99401988538428
H           29.92429799872308        9.80122229931419        7.41161737490145
H           29.52843134550600        8.82499090997765        8.83184540097935
H           30.12298879052810        8.04251533028472        7.36484854173422
C           32.01809214306478        7.90784272222015        9.42010325206538
H           31.34966704630888        7.88941768343081       10.28073959277257
H           33.04254173658576        8.00921210302132        9.77927862164263
H           31.92533425513399        6.96012155775223        8.88884720307467
C           32.59647158779426        9.01654512463571        7.26065095892045
H           32.39448641096506        9.84229325270024        6.57831056229801
H           32.42935780670543        8.08218947925538        6.72298046844605
H           33.64433842932392        9.05106020343514        7.55942782644453
C           30.92546500661945        9.62923476364234        3.08502044586146
C           30.63124332861474        8.21123754558982        3.60765394812436
H           29.58197536117763        8.10551489557333        3.88161027390365
H           31.24110354628624        8.00349724146622        4.48745819434503
H           30.86347178665187        7.47269132900183        2.83989489608764
C           32.39034936090406        9.68012991633035        2.62746672279553
H           32.54932208233625        8.94521621146135        1.83745623073165
H           33.06525970422577        9.44447324299284        3.45065393216336
H           32.64197142443570       10.66405963598694        2.23111914228222
C           30.03029653469381        9.92770069439949        1.86949639236721
H           28.97566880089771        9.84251302207966        2.12973335039984
H           30.24284134732432        9.22228543709506        1.06558450726631
H           30.21949712501923       10.93755074776914        1.50476907033805
C           24.03128378832750       21.71344708211745        1.41574860166332
C           23.26973018542576       20.42573425247646        1.07123540112613
H           23.24482284173491       19.75324143349611        1.92896092058589
H           23.73048662627370       19.90788985009627        0.22987960911088
H           22.24365777693138       20.66993825852357        0.79407648056800
C           24.13174828422334       22.58128566726374        0.14787619394032
H           23.13551848927467       22.80517665216523       -0.23471418517402
H           24.69313264155531       22.05385011452626       -0.62374562634869
H           24.64063357867776       23.52027999754213        0.36539236648114
C           23.23827524528451       22.47277321423141        2.49396484592014
H           23.25595445692159       21.91964049586802        3.43256574059976
H           22.20160109179365       22.59380849577160        2.17840775657150
H           23.65541434148767       23.46382888398998        2.66965793311150
C           33.20685780150647       23.23323577939539        2.32653304467065
C           31.77403828241342       23.20130319756462        1.76740879837667
H           31.10651371820215       23.76922976736734        2.41630697277207
H           31.40237170764111       22.17843143946143        1.70658639654938
H           31.74970837002348       23.64064995845917        0.76976947715846
C           34.14091180994374       22.43415278489068        1.39974607418534
H           34.18605177186065       22.90597246850468        0.41777387244200
H           33.78728729506773       21.41188665184937        1.27074322551075
H           35.14732094657975       22.40351669442981        1.81842311736955
C           33.68802599859629       24.69137657484078        2.34640890516959
H           33.02180825197460       25.31620417245685        2.94147284168861
H           33.69895749256231       25.08353110031226        1.32877154976755
H           34.69840524940992       24.76217147229539        2.75011664637013
C           36.89955543007965       13.46480278926721       14.41690365041504
C           36.69072174676973       12.30623782455000       13.42511158748715
H           37.60260699233447       11.71445745972278       13.34150034759491
H           36.44063861169008       12.70158943418512       12.43991023098387
H           35.88228154837862       11.65193197698119       13.75001850640978
C           37.22309572786297       12.90427948371150       15.81362373110484
H           38.15172645940687       12.33375544228630       15.78292725066877
H           36.42749316746138       12.24829263102301       16.16606095020334
H           37.33846283451132       13.72219299551243       16.52551760811187
C           38.09655126084539       14.29819988694813       13.93864644548672
H           38.98608587219286       13.66821789402881       13.90210135114577
H           38.29378974904092       15.12697287522797       14.61918508498090
H           37.91930294382080       14.69327429409799       12.93719918085495
C           26.92155748920417       28.04657168382750        7.89897962895420
C           25.67689850958277       28.06451281703439        7.00041871440652
H           25.05034508808000       27.19331271398684        7.19218450616328
H           25.95138527667071       28.07984267561837        5.94562376366785
H           25.08890388441666       28.95923282961596        7.20947169478745
C           27.79477960392909       29.26726545479520        7.55608604845146
H           27.22314705708387       30.18679912549735        7.68513133748862
H           28.13281439588294       29.20712694695249        6.52127578103067
H           28.67000965938985       29.30853918824691        8.20438499564854
C           26.45595074290891       28.14413681325873        9.36301992566626
H           25.93110349401832       27.23430731964795        9.65222876668594
H           25.77816868361555       28.98988494310844        9.48368113862252
H           27.29885098502044       28.28615639619468       10.03847652933914
C           21.55945231009938       19.11738119413403        4.86603626360897
C           20.89821347890404       18.91192167633309        6.24197725291598
H           19.92379602554641       18.43669738905457        6.12718310771700
H           20.76154392016752       19.86281460044328        6.75660293155039
H           21.52376844323580       18.27971199939005        6.87063525892273
C           21.53993079388618       17.78884328488759        4.09811408363559
H           20.51004057502509       17.44931466045906        3.98158892900812
H           22.09304078514364       17.01736807425302        4.63268957383375
H           21.97331779054768       17.90840970635636        3.10471514759553
C           20.73536207235624       20.14421142508722        4.06954427889323
H           19.71073933304673       19.78887582163179        3.95505888650268
H           21.16411064617636       20.28532688954810        3.07818551171312
H           20.71076805814042       21.10761324075364        4.57763116900101
C           25.77906413113790       12.99937052411383        2.20670111020947
C           25.67629269623432       11.72658691025391        3.06657353584617
H           25.61102130262556       11.98803998481393        4.12258211118458
H           26.54452820980764       11.08354753332991        2.92501509295892
H           24.78570289944450       11.16031658529673        2.79232577562863
C           26.03559212981915       12.60519828763073        0.74052348863294
H           25.21544901324571       11.99146490827463        0.36671204139051
H           26.96242440754398       12.03878532051941        0.65020800169169
H           26.11448616653063       13.49913508920299        0.12137746726414
C           24.43882242416464       13.74504907288569        2.28412677691412
H           24.23565643234454       14.07538481457478        3.30283907862170
H           23.63223208870845       13.07930123798308        1.97439768013013
H           24.43347852290407       14.61213244145025        1.62344988325640
Au          28.71333563103716       21.57667763171539       11.81790262003441
Au          25.34733556985889       17.74982014671462       10.55532389537387
Au          27.69109967293388       15.65199933697079       10.12091820858343
Au          27.65242685259497       19.70306441112983       10.05981094365115
Au          25.05522726685238       20.27745452856016        9.35951860809799
Au          28.00633551353953       16.94788998374958       14.49684303938758
Au          28.77600252820273       17.49072359316673       11.90620101473928
Au          26.76355218610622       19.05064795174097       12.96682241208275
Au          26.50596122493617       18.16669584333794        8.04786983787365
Au          31.45858904652557       22.43954150034810       12.69433746500440
Au          29.30033376963067       19.43756437997027       14.14692177121234
Au          25.67210537237731       22.20206109848369       11.57295629571059
Au          28.30673247791090       21.91276255568529       15.52308391821354
Au          26.72385747856267       14.82440925010788       12.85413280688345
Au          28.00379468104644       14.94807928252651        7.03765590246225
Au          22.31602043698601       17.75137502081766        9.93298383226508
Au          23.87701288935738       15.13074313422087        9.59257562089928
Au          28.15433268296628       18.51048945921095       17.05832379459163
S           28.54189094709920       13.35764552313409       13.14092180993833
S           25.99863911390511       14.18030400296362        9.08462803124219
S           27.77507875372511       23.08914433240577       13.55233217123532
S           24.81728689270328       16.08468859142329       12.32698010499555
S           28.42978097081411       20.79128121783371       17.58953898137983
S           31.04824285351880       21.20038066250630       14.66006655858884
S           27.56794473214851       16.23632477145205       16.84408412573487
S           26.50526862701798       16.56631478337149        6.17501290623770
S           22.57225570310568       20.02860438294771        9.32785108496576
S           21.56249855015730       15.51038219171109       10.01805423025972
S           26.36100419739991       23.84639098182865       10.00542814411309
S           24.83457692031825       20.56898155569341       13.05512517523774
C           24.89585121525779       24.74038582652093        9.67633457288627
C           24.30256988433803       25.45316658618935       10.71657795667750
H           24.72773094065519       25.40244930835933       11.71187376303365
C           23.18113225907645       26.22971179676884       10.47986739432062
H           22.75400399700672       26.78180420089067       11.30930085638640
C           22.60879384483114       26.31403378980605        9.20741672506780
C           23.20570522155516       25.58758092924351        8.17978759941592
H           22.80305212595871       25.60644394183347        7.17502450849506
C           24.33667387561336       24.81816947221297        8.40880983069210
H           24.79074997790526       24.27849913032053        7.58688064962625
C           21.97000000785621       20.95927940273550       10.67321877627370
C           22.26157086091354       22.32007938580522       10.75354289075188
H           22.88296619714287       22.78060176405959        9.99437202307660
C           21.74573703491895       23.08962222148026       11.78259368494828
H           22.00003383590429       24.14321308173788       11.80991875741473
C           20.91264962763689       22.53868836357539       12.76009104834899
C           20.63673852463423       21.17577397778859       12.67505916591764
H           20.00186130397507       20.68867664113636       13.40466910457144
C           21.15554118184145       20.40015902661698       11.65040382571966
H           20.90972702597486       19.34569168706790       11.60433401704117
C           24.18941560588571       16.89112023177223       13.74338273631466
C           23.24131602986710       17.89840525598215       13.59264046752999
H           22.97257896286015       18.23844093819711       12.59980082691996
C           22.63409313599554       18.46899176463830       14.69706508619192
H           21.88403576510511       19.23136226534120       14.52584930143418
C           22.97707561901366       18.08253731886360       15.99404957094371
C           23.96993790015957       17.11246463594462       16.13440546560185
H           24.29864229408086       16.78799925945368       17.11375692953308
C           24.55901966013054       16.51789832680625       15.02863051461993
H           25.30097355501094       15.74344506066947       15.17475286957210
C           21.58761761356179       14.82962786758522       11.63435890725927
C           21.29872035405090       15.56193319861629       12.77851975092454
H           21.02353858741521       16.60652099181162       12.69605628937856
C           21.38638779743225       14.96616740781882       14.02764966296468
H           21.17870918173842       15.57488397633402       14.90075945735475
C           21.74821523601554       13.62503156054680       14.17487292212332
C           21.97475276997182       12.88698867209220       13.01458155342845
H           22.22933644951412       11.83565921061679       13.06150892442765
C           21.89408618072380       13.47797831881583       11.76471541169458
H           22.07561839632684       12.88453709229175       10.87679752766086
C           26.11767715327176       12.72959584547675       10.05881976307300
C           25.27009290296833       12.48846216333684       11.13318980729648
H           24.49238944094078       13.20160796464254       11.37431197166205
C           25.39283997793271       11.33263945728295       11.89061920865020
H           24.70641401908518       11.19660147638998       12.71717217548516
C           26.36286588400115       10.37876457172435       11.59426867505521
C           27.20708215772965       10.63328302338726       10.51065374254705