468
 energy: -756.185798667491 gnorm: 0.000695053152 xtb: 6.5.1 (579679a)
Au          10.56967325084633       15.84594522275572       15.26955683705843
Au           7.64297906283028       16.18325729999374       16.41043106588438
Au          11.80289355608430       14.54822810478614       10.20789638018719
Au          14.02341172092771       19.75007630259980       13.79720551242152
Au           9.52813293560818       16.41820206356597        9.78377100915261
Au          10.19552636369949       19.89109753422472       16.30747358338060
Au          12.67481020011353       17.02265385388247       16.81897556586418
Au          11.42772307162255       14.57139993063725       17.57917009363695
Au          10.09793480312638       19.00212386756437       10.97254982688579
Au           8.18449107554946       13.84123241135384       10.72279987254203
Au          12.90307845627879       18.08065975439942       11.78082568363441
Au          12.23504732717893       21.89382608024489       12.69384528016168
Au          13.26562375335817       13.25655605307929       15.58766361863948
Au          10.14460179619616       17.14899878404631       17.88986908854476
Au           7.69143782490479       17.80975722251985       11.49057537793570
Au           7.40270977497832       20.06017713852570       17.53598086372421
Au          13.01132515190978       20.98927327378472       16.27645948551601
Au           6.85203498296031       16.04111856642675       13.79340300386378
Au           6.75650598681562       20.86336763599160       13.99357287972118
Au           9.64896866963672       12.65042124411400       16.22455747350849
Au          15.52504028113295       15.18144612802965       12.23320422715994
Au           8.49889549669611       21.32779533365550       10.14492596014423
Au          16.68367577689821       18.63059573159476       13.42834564323604
Au           3.68255610018576       16.63869337846218       15.46136484632402
Au           8.75234856334181       18.28098015298661        7.69047483385171
Au           5.70248033525771       13.40688299636183       14.47128026589913
Au          11.16808492703964       19.11646123642519       19.80336049797442
Au           8.68121412616570       18.17428688125154       14.61305143412983
Au          10.11743987645582       16.52626392313427       12.47379008709676
Au          11.55291535686420       18.56254991935787       14.27115144176158
Au           9.23700394462812       14.06154948861379       13.58654283679437
Au          11.97327801090594       14.55017075398319       13.17715621274310
Au           9.68837474234155       20.58534754039970       13.62156238262492
Au          13.92430990684425       16.86866275335615       14.01507658715474
Au           6.04407972817756       18.32750458656917       15.41049626141929
Au          11.29520692030362       15.30306050630997       20.38939759600365
S            6.42942759739703       20.01404597329910       11.80822441599940
C            4.70626455772675       19.73640230503183       11.67522398343315
C            4.20844220425889       18.91025495237739       10.67240589661941
H            4.89318350821736       18.42692028110344        9.98505509786208
C            2.83613003437790       18.71431223213857       10.54628645028743
C            1.96659242881011       19.32178542474876       11.44872471103505
H            0.89828663592478       19.15886996061344       11.35715097635789
C            2.45599515104854       20.13733759636396       12.46323893666372
C            3.82565642186335       20.35352274416291       12.55495134909503
H            4.21060217979424       20.99916539833629       13.33477058888919
C            2.29757829968007       17.84316219166863        9.44675505716389
H            1.20844411230405       17.86877426899687        9.42346590838880
H            2.61633781598284       16.81058706115351        9.59544578697112
H            2.67607051289924       18.17991630670254        8.48093627878646
C            1.54008705928867       20.77324025212364       13.47104808517910
H            1.61949035469616       21.86101700484627       13.42467145914940
H            1.82935434707878       20.45650714354716       14.47633585643832
H            0.50272720977483       20.48952406421159       13.29674565523382
S            6.53546396786071       15.44601628833388       11.35796580358342
C            4.87125142366652       14.94114260423679       11.19756843952596
C            4.55086083522089       13.80534044551572       10.46688993734591
H            5.33697024312546       13.24987325038801        9.96883345447671
C            3.22951678382187       13.37793759568524       10.38788242763668
C            2.23910171262819       14.09362810887838       11.05445478119477
H            1.20987562167942       13.75451993878105       11.00859767076445
C            2.55458299653158       15.23344767496810       11.79067252925620
C            3.87619839336227       15.65942757250250       11.84968227270196
H            4.13943964005755       16.54542866363151       12.41587996107382
C            2.87379104891307       12.15153583309015        9.59284199469256
H            3.76290424184837       11.56471493250369        9.36307567203648
H            2.40006315495191       12.44133382314375        8.65255137776709
H            2.17146436394664       11.52619629570011       10.14511475749680
C            1.48343899725380       15.96616789499606       12.54900497428999
H            1.81970219271112       16.96409310847379       12.83021453228693
H            1.23989265781447       15.41587613169923       13.46015721774556
H            0.57449258492537       16.05482330694010       11.95319121135728
S            9.42820671954187       16.04926800441274        7.30283101372029
C            7.93100226596306       15.13963522538245        7.27520557297881
C            6.67705825551503       15.73853375981399        7.32598263110456
H            6.60154648720143       16.81744672702600        7.39575502677669
C            5.52383984295926       14.96776151541970        7.28922935549300
C            5.62791554278882       13.58137028497585        7.20303052228345
H            4.72740917662723       12.97783125192656        7.16835559831027
C            6.87452656884687       12.96775304064464        7.15482747645119
C            8.02339267089436       13.75285085958996        7.19365658152810
H            9.00146429095790       13.29042291283985        7.14507164642933
C            4.17116862046377       15.61968944454254        7.33617657145667
H            3.55042147845135       15.15190045744827        8.10151906944594
H            3.66315957933026       15.50912724855797        6.37625584606906
H            4.26514511182467       16.68162448802540        7.55892408957607
C            6.98346315628385       11.46944196693938        7.08610843628512
H            7.16576593913182       11.06629565162909        8.08472227606115
H            7.81382112102607       11.17001731341957        6.44613558924389
H            6.06351077031204       11.02854090204039        6.70250918922772
S            8.06976144963531       20.52718088252618        7.96416202001851
C            6.33456299822912       20.45222375989023        7.77856352581547
C            5.78992962665472       19.66720504534403        6.76571200012099
H            6.44628385930604       19.07481577912756        6.13925901580586
C            4.41887735273146       19.65322758853756        6.54293096375306
C            3.58669584979329       20.42707372621436        7.34934151778106
H            2.51583826027446       20.42304265344826        7.17673996029623
C            4.11891228468519       21.21189038085271        8.36753497654987
C            5.49495397368073       21.22691812283382        8.56878967641144
H            5.91737484820084       21.84423666700933        9.35212917161293
C            3.83966448141193       18.83197776868512        5.42295265667824
H            3.65378868449998       19.46859844367077        4.55500896113068
H            2.89129001852541       18.38425807793583        5.72129181374119
H            4.52644630985296       18.04034496573851        5.12382223795263
C            3.22316006292732       22.05232945153849        9.23566719874561
H            3.62343564969754       22.12067830354402       10.24762762558864
H            2.21957154250518       21.62960891770865        9.28371040191163
H            3.15088761183057       23.06366692270645        8.82969083211025
S           17.28875511710470       16.73379478657673       12.15125952229004
C           17.31376682090344       17.33595199683889       10.51254420344767
C           16.99020641097246       16.49781102410203        9.45241856771132
H           16.65300726703790       15.48793086582963        9.65267793798154
C           17.09080730180025       16.94690474575314        8.13990368279291
C           17.54323629665152       18.23922771904782        7.89453366107498
H           17.64327754470360       18.58898281271357        6.87270546971817
C           17.86537269071521       19.09089854125722        8.94902817020525
C           17.74383821966130       18.63400106709588       10.25461576268646
H           17.99485854239924       19.28745097857529       11.08215234692596
C           16.72015194274234       16.03148982869002        7.00518791302656
H           16.50444226756790       16.60008185298581        6.10068181933975
H           15.84174951823070       15.43877352941476        7.26412533660801
H           17.54204110091812       15.34441619271342        6.79305337682031
C           18.36024561875295       20.48525674376945        8.67734090831457
H           18.31510475560878       21.09643519543135        9.57875852333276
H           17.76435435512721       20.96094489995429        7.89753947591302
H           19.39707705172978       20.45323586404602        8.33581182092285
S           13.53005007495858       16.16316806761461       10.22078348133835
C           13.54205448067844       16.87665427122562        8.62336173804890
C           14.11706220961664       18.13143751501358        8.43915544753827
H           14.54821361590463       18.65023594993231        9.28732406097420
C           14.13436145185576       18.71654689286445        7.17970125939869
C           13.55474172073105       18.04566831647500        6.10258372885911
H           13.55968248698465       18.50630909894717        5.12066232358278
C           12.96956827073410       16.79735408588556        6.27858389597413
C           12.98363851655630       16.21194049774826        7.54094741479261
H           12.53487176732657       15.23591270100864        7.68205674757009
C           14.77131547456630       20.06255863265352        6.97080557157939
H           15.69400178664272       19.95548297046752        6.39751896459695
H           15.00931881867471       20.53061133626714        7.92546537965804
H           14.10569787450234       20.72216964267245        6.41316079438735
C           12.30200909873042       16.07291266894012        5.14277488472781
H           11.26669142057650       15.84701631854867        5.41069431848739
H           12.81108772433228       15.12793956947346        4.94314927282010
H           12.30786295075369       16.67323066388838        4.23357049156380
S           10.28086234782694       12.75101608070197       10.49339342370044
C           10.32262227578993       11.74214739904731        9.06720894736315
C           11.01623277398007       12.11066374173182        7.92181940206700
H           11.51707144075096       13.07058798998486        7.88592504925189
C           11.07873102448591       11.25074825985685        6.83072260476392
C           10.44398728294092       10.01359691549182        6.90214330298878
H           10.49456517069937        9.33595149337777        6.05666382916361
C            9.74354765551917        9.63610925195602        8.04567115154975
C            9.67858107728842       10.51016332873339        9.12588730772250
H            9.13437947312219       10.23572562214760       10.02189722010597
C           11.82429959389563       11.65016127130573        5.58729904992599
H           12.67450035148096       10.98470256932827        5.42674147131317
H           12.19366225554391       12.67258206639268        5.66622173224877
H           11.17284483795337       11.58035767889256        4.71485963980021
C            9.07919398422878        8.28822915822797        8.11556826813908
H            8.37552556547943        8.24298535631266        8.94639441162493
H            9.83187411264553        7.51023963476710        8.25944168953396
H            8.54591257402038        8.07365659329605        7.18887615467588
S           14.13858932886844       13.35289881290937       12.80872385430230
C           13.97138997027032       12.33340223833304       11.39375223541903
C           14.50855329323615       12.71361587795850       10.16870277835953
H           15.05433716024153       13.64497054134414       10.09044613688654
C           14.36575116585627       11.90144450452421        9.04848199103846
C           13.68714001309282       10.69424414286990        9.16929624647933
H           13.57081402460910       10.05379718588192        8.30175042469465
C           13.15007166120412       10.30039331140573       10.39197981142534
C           13.28448945971005       11.12888077699080       11.50155463041489
H           12.85608326684050       10.84007372583254       12.45448730139417
C           14.93048826303225       12.35191671854029        7.72932663074495
H           14.86360123998105       11.56099554804502        6.98282874539591
H           15.97580714626489       12.64364354171416        7.84034298881029
H           14.37722208934099       13.22020207766825        7.36463328297737
C           12.41817354625776        8.99289200730745       10.51463481577063
H           12.88050523666687        8.36881303396672       11.28080079291028
H           12.42565088710733        8.44991036518461        9.56983961919292
H           11.38068578946747        9.17071840175055       10.80199136473702
S            7.41900031560190       12.41152099350608       13.16694980558299
C            7.94984656211655       10.95573880764345       13.98496138511613
C            9.12051198871524       10.32884335590829       13.56743646471358
H            9.68010636112603       10.73800494895493       12.73325114851645
C            9.58902794692901        9.20492232440177       14.24082158100950
C            8.87718156726849        8.70804880121993       15.32845487079108
H            9.24983285753967        7.84089070708012       15.86282413280742
C            7.69947330541428        9.32028854386496       15.74519251158075
C            7.24009496962064       10.44206332430294       15.06471705936202
H            6.32741983207806       10.93004466585873       15.38354663835972
C           10.87656780069757        8.55638091707657       13.81580281859537
H           11.20537736783572        7.82101503017027       14.54974643146402
H           11.65555769533981        9.31268978886250       13.70663221364245
H           10.74737647883413        8.05400145751726       12.85570312031496
C            6.95219806047423        8.81145001937470       16.94701012558457
H            7.23961522481490        9.38898248655145       17.82912801688614
H            7.18285330368128        7.76337702968674       17.13675540539374
H            5.87611718811712        8.91883930032648       16.80910922797851
S           11.64422225060756       11.52830542416831       15.55459751540934
C           12.07066713138665       10.49050528373823       16.89288923345166
C           11.08511095147443        9.92783685958503       17.69499866114427
H           10.04573156569547       10.17339182903459       17.51418124852688
C           11.42680013820923        9.05499287808325       18.72018474155485
C           12.76674275047735        8.74200467659287       18.93232782353001
H           13.03811857341991        8.06109435940376       19.73202401007314
C           13.76151533812062        9.29448217377561       18.13026397231718
C           13.40603963948174       10.17009922769710       17.11190189867002
H           14.17012158803070       10.60987508990950       16.48143793116445
C           10.36411500102914        8.45436537982256       19.59853699606185
H           10.39808804367433        7.36485906327822       19.54612218523808
H            9.37218065303740        8.78678620578552       19.29291796751546
H           10.52535211819415        8.74627867715816       20.63783357369361
C           15.20440392383696        8.93422052071123       18.35396459886634
H           15.40888749704624        7.94297884463608       17.94348637965569
H           15.43410006398329        8.91258763368450       19.41964827359158
H           15.86526807561712        9.65073458493113       17.86599258440300
S           11.09136448247032       13.08159289133549       19.60586949242009
C           12.69487151799952       12.49238679005385       20.00347389447631
C           12.79579197330863       11.50312337310410       20.97495722623100
H           11.89698206395887       11.13836145104346       21.45859846651677
C           14.03903421910715       10.98775885801672       21.33074528933910
C           15.18270524193934       11.46266416667520       20.69770127430161
H           16.15499688269034       11.06635826398219       20.97013904259654
C           15.09178626804115       12.44483881030153       19.71284800815984
C           13.84669436736623       12.96057770729709       19.38042195861670
H           13.76936931550065       13.73829520849965       18.63101510583206
C           14.12878178640165        9.92849277991237       22.39554963256157
H           13.48384298363841        9.08416101936532       22.14611234573848
H           13.79877928100272       10.33077148183938       23.35528444158521
H           15.15134671784864        9.56755970581819       22.50336068594098
C           16.32620421924419       12.91983539707191       18.99730979833678
H           16.64812130381351       12.16737280914232       18.27381608133920
H           17.14478894917506       13.08357598582461       19.69872001112453
H           16.13006100040142       13.84570176676438       18.45768741672955
S           11.67459134677796       17.42292833428288       21.36561061038252
C           13.40826395583634       17.44975742028925       21.56810020918193
C           14.08625852096478       16.28187697782325       21.90129649717133
H           13.54095407287532       15.34754255905728       21.96736495932568
C           15.45173059171597       16.30440864548924       22.15876137459106
C           16.14054645872453       17.51168540811614       22.07770046010040
H           17.20580514322967       17.53796669602903       22.28022172442605
C           15.47692679201892       18.68428355297982       21.72714971635226
C           14.10891843972624       18.64772373178479       21.48335167655868
H           13.58241192278104       19.55727971758257       21.21979666771680
C           16.16104302475641       15.03269777395894       22.53860985476572
H           16.04480668807682       14.84807232172181       23.60890361637326
H           17.22634377249749       15.09817767225607       22.31790782299321
H           15.74004303180911       14.18140452562948       22.00216751814612
C           16.22491376266917       19.98462692775142       21.61628203403894
H           16.17150914480744       20.53028810530178       22.56079927827891
H           15.79022798509627       20.61140719221894       20.83673443113164
H           17.27459997960361       19.80956361653235       21.38003413537717
S           13.35338408344716       19.25866418923252       17.86771433095662
C           15.08121102797027       19.12317375594352       18.10302993511701
C           15.92751515344842       20.19019335605103       17.83881538628324
H           15.51936548892544       21.12166600834466       17.46558809752995
C           17.30146401944029       20.06382339713390       18.02206748151519
C           17.81796918217810       18.86626903229849       18.50255478667755
H           18.88625166593872       18.76313900030453       18.65903944830091
C           16.97535595066629       17.79019366547977       18.77989221325325
C           15.60886636991900       17.92250027489353       18.57122604905574
H           14.94391462318522       17.09062632565908       18.77243408417262
C           18.19916034345074       21.21670952786877       17.67024431064428
H           19.24909503435949       20.95169358651862       17.79065749588143
H           17.98003179351711       22.07772603487858       18.30415088874669
H           18.02533353263268       21.50783674810877       16.63167500208536
C           17.55097293029544       16.49074171562986       19.26989863130030
H           16.76765174139997       15.85184999689084       19.67476068869272
H           18.29865790595608       16.66700618616501       20.04373623426784
H           18.03620764821833       15.96257606766521       18.44684778786076
S           12.48494648071885       22.83465698585948       14.85460688946971
C           13.93107405204496       23.80920806710377       14.77515477621971
C           14.17013247331095       24.58996479074986       13.65002516029112
H           13.48759988747204       24.53808745969820       12.80963475681478
C           15.27465404981376       25.43199206681579       13.59962501644234
C           16.14049867032313       25.48629524181037       14.68775595217798
H           17.00530315666654       26.14020245255337       14.65443150646277
C           15.91144673487648       24.70603365112521       15.81836913757538
C           14.80303591380900       23.87014250706803       15.85599789056879
H           14.60983580992229       23.26294451517637       16.73186856449107
C           15.51590153374992       26.28903415160292       12.38752333617026
H           16.58353351485301       26.43199227839172       12.22058978679522
H           15.05958561384068       27.27115938994877       12.53012261583026
H           15.07721146465983       25.83589296995932       11.49831229315830
C           16.86050590833672       24.76995925392819       16.98328570780885
H           16.53623699353172       24.10893561265566       17.78680444107752
H           16.91756690191777       25.78828091235786       17.37154386880549
H           17.86293856796311       24.47284239938357       16.66992389337648
S           16.26567145984822       20.65854524569930       14.57122135565354
C           16.72674452342844       21.80425298614073       13.32621526236366
C           16.09273476581408       21.87769235799392       12.09074808644225
H           15.28580192442674       21.19234837233411       11.86245882250786
C           16.48715794047125       22.81805557188261       11.14771390075985
C           17.53832409155623       23.68253475157919       11.44392734586788
H           17.85593091771960       24.41255463545621       10.70713008914695
C           18.18187110875787       23.61876642253928       12.67613068997191
C           17.76932805062387       22.67857229057847       13.61433820569664
H           18.26038237176794       22.61927866100165       14.57869598545047
C           15.76762572969959       22.92322906004413        9.83130719070775
H           15.09390144003022       23.78284580475017        9.84617126615774
H           15.17487353898110       22.02923392190030        9.63863881798121
H           16.47217336199642       23.06510193002233        9.01140030254234
C           19.32691691636985       24.54376828498992       12.98754304448361
H           19.38717679563162       24.73923906154391       14.05839564498393
H           19.21485704408254       25.49165889695632       12.46089864669862
H           20.26830680158534       24.08845474135592       12.67172218079523
S            7.79099123289771       17.88846613276940       18.43188735580889
C            7.51093579245220       17.69269281944043       20.14481121445223
C            6.78785385872734       18.64208765610680       20.85431253381067
H            6.36617007082677       19.49422734662495       20.33428742161560
C            6.61973289926119       18.50377080638838       22.22811754280190
C            7.18614253948320       17.41290528844238       22.88103934950515
H            7.07162860013817       17.31221635587297       23.95489564456906
C            7.90826811732535       16.45451412962213       22.17422151645910
C            8.05318363935334       16.59418688200268       20.80015091236746
H            8.59789027217083       15.84978125815815       20.23123485185777
C            5.83475806132433       19.52420112990371       23.00565783077695
H            4.82526716970838       19.15168047701889       23.19344286336827
H            5.75767919951989       20.46059895436442       22.45352196127349
H            6.30577114403680       19.72066930299176       23.96928351775740
C            8.55590520616514       15.30669181451493       22.89642088665282
H            8.81884855184917       14.51073157134334       22.20028904363756
H            7.89174843919206       14.90218554224993       23.66073180170165
H            9.46925006814044       15.64893740639186       23.38741949632690
S            7.39005776221593       21.89803531578588       16.03275238796523
C            6.18189104153560       23.06760071450401       16.50872155300006
C            4.97319636838445       23.19937058477830       15.83776917299820
H            4.75074505011133       22.54554404941494       15.00323580298650
C            4.05862524144172       24.17298471976987       16.22471766217990
C            4.37054962103686       25.01678472064052       17.28725482051556
H            3.66234337847351       25.78051997564106       17.59019357778463
C            5.58092305824246       24.89280300892726       17.96565657271898
C            6.48325153927986       23.90871958239008       17.57569619092330
H            7.42759623524601       23.79383411903105       18.09455010190719
C            2.74184673329586       24.30917855290977       15.51166796092382
H            1.92076539716506       24.06852639344598       16.18948957710881
H            2.60123582060471       25.33289974626265       15.16165757170729
H            2.69152957883864       23.63663308653999       14.65560408199883
C            5.91382258546018       25.82540867179940       19.09790084071830
H            6.74696979561175       25.44210942241116       19.68648924949666
H            5.05153702786131       25.96000387126616       19.75172903479457
H            6.19363065835387       26.80418942998267       18.70265160059104
S            9.44213561433887       22.46925871790195       12.00028849581610
C            8.22932954219854       23.54738198727674       12.65898412986162
C            6.94289561951459       23.59112276328744       12.13323534230106
H            6.68853845991587       22.96257352654137       11.28960261236495
C            5.98588756094738       24.44553622155608       12.67139559709089
C            6.33281466811074       25.26574059912198       13.73863246679092
H            5.59305725197993       25.93435844754459       14.16523805721946
C            7.61889617960786       25.23337897125844       14.27099192394202
C            8.56337837688149       24.36469636366960       13.73428875246385
H            9.56292698170940       24.31912466466709       14.15155527546845
C            4.59389910411990       24.45489758127959       12.10233799504242
H            3.98914517453357       25.23915108117784       12.55673958872730
H            4.10982968364767       23.49330334433690       12.28605160968215
H            4.62337315987376       24.61463771998702       11.02352252586913
C            7.98477232613253       26.12135293460496       15.42763515658594
H            8.82419803877575       26.76544930154078       15.16159003311695
H            8.27995081538680       25.51522278504317       16.28549605462166
H            7.14304625643460       26.74786073112160       15.72181426742344
S           10.05028143553658       20.82984397790440       18.61114377948982
C           11.09059876085880       22.23989496906138       18.60444141046413
C           12.23255877677692       22.28948663036222       19.39594992753420
H           12.46769449912741       21.45584053579018       20.04615679093179
C           13.08272426414775       23.38843104923099       19.34698246091018
C           12.77311547605179       24.44863420836552       18.50148377752206
H           13.43694389950836       25.30464990618369       18.44729210475281
C           11.62731831127998       24.41540787677174       17.71160376584749
C           10.78473978213676       23.30973433301975       17.76758055837108
H            9.90243418198113       23.26294504802056       17.13864679839930
C           14.34370570466964       23.39542189330312       20.16682597204517
H           14.15407892277000       23.01636811290182       21.17153598034010
H           14.75845919345522       24.40047775497669       20.23978942608267
H           15.09031745685794       22.74929429540824       19.69859940135114
C           11.31883545592652       25.55061137426697       16.77592129145695
H           10.49046477139915       26.14540277864927       17.16484883362422
H           11.03418113960626       25.16121364574588       15.79737374740475
H           12.18382906310528       26.20223337135960       16.65388674428284
S            7.54801276450948       13.63952572884535       16.70304728273255
C            7.23966398387162       13.41803929570400       18.40958158651403
C            7.90171921641256       12.44706695950779       19.14772596656854
H            8.64192030658717       11.81761714054459       18.66897664284395
C            7.64376415641934       12.29684297749911       20.50699418214700