434
 energy: -736.466274463315 gnorm: 0.000726145833 xtb: 6.5.1 (579679a)
Au           7.50529115078368       37.44373427645841       37.17320913340753
Au           9.72969650898871       36.03150988971410       35.74467957093116
Au           7.49198439963309       34.50409125451508       37.16326647047664
Au           7.59450697781357       40.27709173075831       37.21402873229236
Au           9.62399334464779       35.99449582942470       38.76644537491340
Au           5.43364118967768       36.00258547494178       35.85039912975423
Au           7.54510864113035       37.14527466410451       34.02546894349750
Au           5.54253223861094       35.96109529418850       38.61433723903197
Au           5.52683257449065       39.02014054615206       35.46150861018427
Au           9.59533928327866       42.34523294577587       37.19012649010928
P            3.92285106347640       35.34280478529269       34.10765038496947
C            4.19010514305104       39.07084101433500       36.95294656132781
C            3.13967322055654       39.08772015127524       37.58551143383576
C            1.89508770480427       39.15120031727476       38.25980852899045
C            0.69984785581784       38.99207372668745       37.55000929518638
H            0.73476579541670       38.79875865646755       36.48420923551461
C           -0.51508194430234       39.07871023277416       38.20797044717948
H           -1.43660473775503       38.95310225491747       37.65124825043620
C           -0.55714011223828       39.32233232292815       39.57492938186329
H           -1.51013439731329       39.39052973509877       40.08605312641560
C            0.62573343103114       39.47320147780836       40.28724579043262
H            0.59781567117238       39.65800086657498       41.35514947414502
C            1.84425578669875       39.38696205392982       39.63773703016710
H            2.76992096948643       39.49547337254413       40.19288520220677
C            6.72479435764329       39.08588214952925       33.81477493976567
C            7.12536040904856       39.73288283507458       32.85005139524409
C            7.63448631100039       40.44571758630507       31.74136327448804
C            7.11921050377622       41.69843624934775       31.39024701462143
H            6.30119861768160       42.11871210336832       31.96295810009029
C            7.66624700801369       42.39696328297791       30.32765322435518
H            7.26996216642581       43.37095726094264       30.06499595745234
C            8.71940217213774       41.85630862564391       29.60093923794698
H            9.14512948844053       42.40749610514208       28.77086475257028
C            9.22499596102302       40.60670464871757       29.93713665643343
H           10.04035995268928       40.17911777675926       29.36481272073852
C            8.69220774535815       39.90169320701096       31.00182447838893
H            9.09015767573550       38.93070704526654       31.27527662962362
C            8.35864238447811       35.31305044806246       33.87015244364612
C            8.75335897094816       34.18150664621818       33.63971378578532
C            9.23478567751618       32.86668524268148       33.41904420745890
C           10.44400172417490       32.47616445843084       34.00819161278073
H           11.02201644346112       33.20459653435390       34.56270191086717
C           10.91164497261481       31.18185656236106       33.85775904218583
H           11.84463044365750       30.89187316391449       34.32715396542185
C           10.19036126374570       30.26455200972122       33.10467032665645
H           10.55569182914283       29.25129461739779       32.98749744934091
C            9.00555078147236       30.65202414501487       32.49233836498907
H            8.44846237690614       29.94227596172220       31.89162881729591
C            8.52605804086926       31.94267912361927       32.64669389565590
H            7.60551945024943       32.24383913441380       32.16250210461385
C            7.58192249365133       42.57039504041703       37.43959214034434
C            6.43094210504140       42.95066341961590       37.60171753016481
C            5.09631581522660       43.38677710061432       37.79267985105106
C            4.15879121100607       42.51801538343606       38.36229014356748
H            4.47274816939494       41.52488361268130       38.66583695110442
C            2.84204208331398       42.91112201205935       38.52202470530129
H            2.12088716651837       42.21848853108928       38.94202611928291
C            2.44500969243854       44.18534244584659       38.13288605817985
H            1.41384185143212       44.49364316289225       38.25895292258068
C            3.37071559777558       45.05890004835808       37.57644999932675
H            3.06123959873141       46.05212934966404       37.27195245513899
C            4.68743017925736       44.66636119138595       37.39856923475899
H            5.40691607626303       45.34255665233161       36.95233052856310
C           11.56964288898557       42.58794309532840       36.69820833348865
C           12.36522948655981       43.40977525928699       36.26656585924444
C           13.22639175367305       44.41618679221973       35.77302100251962
C           13.82420426640086       45.33121183169125       36.64944587820269
H           13.64547859385496       45.24395925458487       37.71444273080537
C           14.62696614328117       46.34409180293341       36.15395428627935
H           15.08511808390085       47.05006040134487       36.83728438806033
C           14.84000529327293       46.46319264248325       34.78564907336857
H           15.46009529429550       47.26426540401548       34.40082103325628
C           14.25541405647479       45.55482730671906       33.91034072197957
H           14.42514383414371       45.64391305495420       32.84327111284424
C           13.45732628073526       44.53460857758839       34.39671391311738
H           13.00318377610866       43.82141585600261       33.71916504711885
C            2.39349550257724       36.32010373861272       33.92958281497241
C            2.45842678610262       37.70648778310941       34.08183609379883
H            3.40813080124179       38.17622634971948       34.31295484922015
C            1.32612165987294       38.49440409629475       33.95601750464441
H            1.40527526055271       39.56985679476741       34.06352677607182
C            0.09808426828823       37.90335006416419       33.68980958869071
H           -0.79085270178153       38.51540826978829       33.59420469614712
C            0.01459823678893       36.52503290757446       33.55122150200584
H           -0.94085785756994       36.05564494003185       33.34774255930910
C            1.15002495441798       35.73718652099204       33.66900308915687
H            1.06518020562563       34.66352725478225       33.55126049882003
C            4.77679238779713       35.50283891209286       32.51050096966784
C            5.55359006054801       34.44619183220679       32.02713052279660
H            5.55210882316604       33.49468713070758       32.54703595849361
C            6.32689652451417       34.60719879634453       30.88836531961241
H            6.91483324894567       33.77600141709167       30.51668765836035
C            6.35828027720055       35.82878431934760       30.23050753450010
H            6.97046262952764       35.95427604478019       29.34516835214596
C            5.60298202767049       36.88994566497834       30.71034178238000
H            5.62378156376043       37.84789606470125       30.20372108117797
C            4.81715653254571       36.72945016439611       31.84093654626488
H            4.22535759170122       37.56322844279470       32.19988822539346
C            3.35524108215373       33.62343432273733       34.19772942692671
C            2.84074385055511       32.95029004750909       33.08336004637732
H            2.84261913027804       33.43279832146814       32.11251983353666
C            2.32895835630425       31.66934915408379       33.21583712067664
H            1.93071766699160       31.15851307536014       32.34695955838700
C            2.31972232680365       31.04533235484146       34.45644432444972
H            1.91190495752138       30.04671915751050       34.55851208972130
C            2.84641066490915       31.69611673895578       35.56294091057032
H            2.86103957195155       31.20502043678872       36.52903930007499
C            3.36391996978165       32.97479279613337       35.43419039623101
H            3.78013119430625       33.47712751731042       36.30064234994469
Au           7.50565603069107       37.52037244072294       40.35955354115758
Au           9.72981249923294       38.93227168960919       41.78717594192962
Au           7.49158375606270       40.45833791662452       40.37064785241546
Au           7.59354865585602       34.68571143369238       40.31764402406714
Au           9.62430310230003       38.96846465813821       38.76609625831276
Au           5.43534186820978       38.96033133836780       41.68274143829432
Au           7.54367057266311       37.81844417027627       43.50674364394100
Au           5.54259687771164       39.00170805157641       38.91797993623350
Au           5.52673784109036       35.94203592698552       42.07111444629442
Au           9.59524144381347       32.61808102321079       40.34263047803662
P            3.92291612788478       39.62047452846424       43.42465476786909
C            4.19000646473256       35.89296248640358       40.57968193633011
C            3.13971874754637       35.87577228862963       39.94690477904737
C            1.89511650578697       35.81230394615830       39.27263803163883
C            0.69986522354788       35.97187860871758       39.98232063989669
H            0.73473779970167       36.16536227840636       41.04809140924031
C           -0.51503680879648       35.88548026887413       39.32427181574681
H           -1.43657348243878       36.01138872721252       39.88090463271367
C           -0.55705079004192       35.64169840720946       37.95733913415527
H           -1.51002226047720       35.57367633843711       37.44614840174018
C            0.62584167451550       35.49045190364351       37.24513277321125
H            0.59796275979985       35.30553331937111       36.17724950341189
C            1.84433561753501       35.57645269843869       37.89472470851654
H            2.77003064286311       35.46770003819877       37.33965157354797
C            6.72477454855763       35.87715773362608       43.71779125226956
C            7.12570862642075       35.23045605255783       44.68255461508516
C            7.63512709416984       34.51766990164634       45.79114814221879
C            7.12025428369307       33.26475791558970       46.14219932845333
H            6.30239705991495       32.84422706314452       45.56945153488334
C            7.66744663949752       32.56638183082804       47.20481558646159
H            7.27146070616230       31.59225242049787       47.46743239824482
C            8.72036403736638       33.10737265673865       47.93162171992019
H            9.14620121080447       32.55631890018325       48.76173030803000
C            9.22557059017973       34.35714811550611       47.59547428243322
H           10.04073442664431       34.78500290040120       48.16788047007007
C            8.69262365106141       35.06201077027582       46.53076464313941
H            9.09027980391720       36.03312701149709       46.25734981823343
C            8.35827747963425       39.65024323991999       43.66187099614567
C            8.75382755459268       40.78147656346231       43.89238423489890
C            9.23450192299335       42.09663609386082       44.11266214405855
C           10.44389799199561       42.48719113472212       43.52394302347772
H           11.02215721729858       41.75874894182893       42.96968765841680
C           10.91137841083791       43.78154035280073       43.67442224701166
H           11.84445866798183       44.07156862448565       43.20524813324975
C           10.18975427907229       44.69886657976039       44.42715523114089
H           10.55492325011251       45.71218931185984       44.54426666913995
C            9.00478806742396       44.31134961525095       45.03916575859085
H            8.44741400980105       45.02114116595100       45.63956196747737
C            8.52545156839441       43.02062856437643       44.88476585335027
H            7.60483886002040       42.71940209988660       45.36877439370384
C            7.58200570716321       32.39267505195686       40.09187190693738
C            6.43112660013097       32.01216718550582       39.92966695915243
C            5.09654082340541       31.57602016473255       39.73859692443146
C            4.15877313045058       32.44501833263156       39.16975304351821
H            4.47243435664311       33.43850663669991       38.86707150128862
C            2.84214228561910       32.05166611508481       39.00966091139387
H            2.12078859680507       32.74445702206338       38.59025963909138
C            2.44549221803533       30.77697199608944       39.39764441928314
H            1.41441764399123       30.46847712135110       39.27130100769661
C            3.37146000213207       29.90317927030178       39.95327791027178
H            3.06229519763825       28.90957152130127       40.25685080531922
C            4.68805356541111       30.29594997905090       40.13151867593781
H            5.40776157479389       29.61956392595930       40.57711007832714
C           11.56981597448069       32.37501777106780       40.83347550303965
C           12.36518594997078       31.55312810740367       41.26539231681244
C           13.22630904510051       30.54657706610206       41.75872571999362
C           13.82426005369699       29.63184860682547       40.88208392792102
H           13.64564405379145       29.71941479095861       39.81709398014808
C           14.62702100962717       28.61885781111529       41.37735217228681
H           15.08526701754639       27.91310904292041       40.69385790197677
C           14.83993614005270       28.49936352494557       42.74564242406454
H           15.46002187187180       27.69820225754773       43.13029302915460
C           14.25521801222808       29.40744201364786       43.62116324558860
H           14.42484611041039       29.31804372229097       44.68822272866079
C           13.45712175078775       30.42776357756837       43.13501904440893
H           13.00287607967778       31.14072975050032       43.81273792654476
C            2.39347073111082       38.64330612425758       43.60272165733136
C            2.45828049961370       37.25692113122455       43.45042544929352
H            3.40794160635190       36.78711337317880       43.21927461461914
C            1.32591487828873       36.46909121929649       43.57624677819221
H            1.40497548980308       35.39363643415253       43.46868837723292
C            0.09793408150973       37.06023651951764       43.84250871725824
H           -0.79105244357552       36.44824804055097       43.93810391776024
C            0.01456851726290       38.43855436061068       43.98116365631890
H           -0.94084571058148       38.90800977320515       44.18468495666235
C            1.15005828206575       39.22631335918001       43.86338221669438
H            1.06530825099888       40.29997478940961       43.98117404546964
C            4.77690122450141       39.46038873237235       45.02176667879984
C            5.55374233645303       40.51700351890060       45.50514302981953
H            5.55232165640002       41.46849766038243       44.98521839957843
C            6.32702078168988       40.35597007468307       46.64392535693420
H            6.91508898220079       41.18710609441379       47.01553317771791
C            6.35826303944200       39.13440948815752       47.30183843474142
H            6.97046714801452       39.00887348479002       48.18715622184460
C            5.60283409174235       38.07331217650563       46.82206173891665
H            5.62350126285247       37.11539409465887       47.32874991346015
C            4.81709442128108       38.23381541592170       45.69140744707565
H            4.22508691763213       37.40013252987708       45.33257514831934
C            3.35539198292894       41.33987264552957       43.33443041255045
C            2.84105170068764       42.01320922454387       44.44875409344063
H            2.84296891166934       41.53083171425870       45.41965908833244
C            2.32937062522489       43.29418055683576       44.31614775627929
H            1.93125369256910       43.80516984974007       45.18499130593428
C            2.32006422008594       43.91802897285913       43.07545640863215
H            1.91231082945330       44.91665673999389       42.97328614279959
C            2.84659009781522       43.26705189676946       41.96899878543645
H            2.86116188466843       43.75800314302997       41.00282461098482
C            3.36400745031502       41.98835939036960       42.09788448651209
H            3.78009866866658       41.48589407391249       41.23145817804338
Au          11.74227554824572       37.44356085995367       40.35875276766686
Au           9.51908327194530       36.03124083175026       41.78746241304579
Au          11.75696911864897       34.50488036656004       40.37115616320909
Au          11.65424842795795       40.27695687123014       40.31832634250288
Au          13.81344222172380       36.00138108916814       41.68180114741158
Au          11.70355895436179       37.14504720598686       43.50709504164332
Au          13.70544932655371       35.96130854453282       38.91817738717438
Au          13.72169594794962       39.02015939676506       42.07118838884357
Au           9.65286205270616       42.34520976734086       40.34205324502351
P           15.32540595722129       35.34276448022442       43.42475467909527
C           15.05810793279352       39.07106771791496       40.57949021631813
C           16.10850026994566       39.08752570944068       39.94686042364824
C           17.35306442421543       39.15060473565065       39.27249146089524
C           18.54833379016513       38.99122395063017       39.98219566297774
H           18.51347591042314       38.79786960695773       41.04799246005479
C           19.76322901726375       39.07766989943028       39.32414130630987
H           20.68477587104778       38.95183937718339       39.88077556878694
C           19.80521893898142       39.32137325588230       37.95719502210085
H           20.75818202404619       39.38941216676158       37.44599234003842
C           18.62231444919189       39.47252322991263       37.24498890126986
H           18.65017471750112       39.65738628957698       36.17709672654799
C           17.40383055598577       39.38647289229387       37.89458638625756
H           16.47813401485664       39.49521572034928       37.33952686724532
C           12.52306365216624       39.08609474811502       43.71742009879118
C           12.12235694675076       39.73298956318921       44.68215172618540
C           11.61323288068317       40.44567411946310       45.79094052315588
C           12.12811413583106       41.69860735781990       46.14186205231968
H           12.94586197313530       42.11913719804379       45.56896356759979
C           11.58101886388472       42.39702809385840       47.20449391779258
H           11.97705693082731       43.37115120039884       47.46704717041390
C           10.52817199212911       41.85607135155235       47.93142945895470
H           10.10247192764586       42.40712945258825       48.76160458377492
C           10.02286630675127       40.60632400417799       47.59533284230194
H            9.20773493423237       40.17851070393417       48.16781860106396
C           10.55570431706347       39.90142198428899       46.53059388729824
H           10.15793776009048       38.93034482370974       46.25719117901588
C           10.89019240018567       35.31269645920722       43.66171473191972
C           10.49460164031337       34.18151518288037       43.89236475410412
C           10.01362632399653       32.86651405913090       44.11291796270159
C            8.80429474015527       32.47586810963782       43.52411616250539
H            8.22605821850643       33.20422683060225       42.96973180847046
C            8.33684080200804       31.18151426180837       43.67469400040977
H            7.40374217155786       30.89143297653137       43.20558691950625
C            9.05847243236443       30.26426420161823       44.42751511442239
H            8.69330023597587       29.25095704322583       44.54475166468678
C           10.24344895574560       30.65183814595216       45.03946616606851
H           10.80083939047016       29.94211099250185       45.63992144812629
C           10.72273080362625       31.94256393280694       44.88500939036491
H           11.64337685669498       32.24383400437525       45.36892911644922
C           11.66626537605654       42.57031381552508       40.09222452013813
C           12.81721007246097       42.95062132580709       39.92992331787678
C           14.15180554023843       43.38679696770658       39.73887955656816
C           15.08951025159306       42.51790155355960       39.16978181764935
H           14.77576412792388       41.52453059743232       38.86680182761148
C           16.40617730834220       42.91118634654919       39.00981387017153
H           17.12747488711437       42.21845143620271       38.59022342170964
C           16.80293992009400       44.18572778436710       39.39817731247987
H           17.83404105622790       44.49417166694873       39.27191887213838
C           15.87704766992293       45.05942662957277       39.95408397865409
H           16.18630906688987       46.05290884875546       40.25797307030434
C           14.56041619024861       44.66671394293624       40.13220433348987
H           13.84078064775743       45.34302913016799       40.57801985260109
C            7.67845945088481       42.58805377439754       40.83364544544153
C            6.88298383358357       43.41001256909826       41.26523209677351
C            6.02186498263580       44.41661533952599       41.75846417709956
C            5.42392038802360       45.33126319047274       40.88173300331083
H            5.60255106480174       45.24360575018853       39.81675335959873
C            4.62114536493999       46.34429213559660       41.37690132853749
H            4.16289619073650       47.04997159932037       40.69333771983587
C            4.40821281786751       46.46390797554541       42.74517829479726
H            3.78810136718982       47.26508836099860       43.12974803210350
C            4.99294536566596       45.55592568365014       43.62079008211538
H            4.82330728921250       45.64542306110391       44.68783975300585
C            5.79105881770668       44.53556904292206       43.13474769527461
H            6.24531711032360       43.82267828835836       43.81253836170175
C           16.85483295494127       36.31996891286402       43.60272211826306
C           16.78997849718718       37.70635334341342       43.45043398076047
H           15.84029534623361       38.17614265263424       43.21934983471435
C           17.92233872236353       38.49420064023391       43.57620364397316
H           17.84325110500552       39.56965621282854       43.46867526757432
C           19.15034730875378       37.90307430185152       43.84238713333162
H           20.03932624877877       38.51507873527503       43.93794734080145
C           19.23375153498845       36.52475526511804       43.98100888600869
H           20.18918600988549       36.05531444581857       44.18446773153098
C           18.09827107847080       35.73697804038660       43.86328534772851
H           18.18304612444592       34.66331612620974       43.98105785657391
C           14.47154087403504       35.50290487744303       45.02193131894358
C           13.69454941155318       34.44638488332763       45.50526962506143
H           13.69586990688041       33.49489461140691       44.98533717516075
C           12.92124249049659       34.60750801200181       46.64401767379194
H           12.33310336861975       33.77642423886805       47.01563003548399
C           12.89009843226306       35.82907849537099       47.30191748282197
H           12.27790223631464       35.95467695178243       48.18723197105292
C           13.64564072595119       36.89009692234790       46.82214899801828
H           13.62504921175298       37.84802428854983       47.32882210755868
C           14.43142438968505       36.72949538283545       45.69154158147597
H           15.02344374179033       37.56314893069992       45.33266181184948
C           15.89292264227777       33.62336512090481       43.33461088498130
C           16.40725668417040       32.95006682403491       44.44895884639322
H           16.40533763490080       33.43247396055182       45.41984929560875
C           16.91894456321107       31.66909442816914       44.31639419686534
H           17.31705525618070       31.15813152794086       45.18525728831825
C           16.92825889606606       31.04520761579884       43.07572246345361
H           17.33600288683445       30.04657022792433       42.97359350929533
C           16.40175331612692       31.69615904088317       41.96923460417411
H           16.38720103341612       31.20517729996974       41.00307545707261
C           15.88432593086928       32.97485950113673       42.09807668912513
H           15.46823583755789       33.47733116763285       41.23164428401704
Au          11.74289629010764       37.52034913779028       37.17309487342703
Au           9.51798097170341       38.93205024425744       35.74503319803657
Au          11.75630449115155       40.45863554689265       37.16299639329288
Au          11.65462433548552       34.68599234409713       37.21474409651418
Au          13.81386953056459       38.95998684173951       35.85050094155257
Au          11.70400742540873       37.81842208118190       34.02608672979553
Au          13.70525497173241       39.00190933965795       38.61426856112283
Au          13.72130433904032       35.94207218574151       35.46137331209221
Au           9.65277675676559       32.61780014212221       37.19019403400675
P           15.32524754131194       39.62030420240654       34.10762280908159
C           15.05798667065135       35.89322362931441       36.95286212047005
C           16.10836742646930       35.87557311190346       37.58547814465723
C           17.35303576302644       35.81189754667923       38.25960325532613
C           18.54827274474041       35.97104044375568       37.54979458206208
H           18.51336290540901       36.16436628279381       36.48399644511580
C           19.76320552323154       35.88443104794559       38.20776493453016
H           20.68473372628167       36.01001726634151       37.65104515096398
C           19.80526182015534       35.64085714283259       39.57473379850010
H           20.75825381748048       35.57266737926453       40.08586328552290
C           18.62238766497661       35.49003867976214       40.28705921784630
H           18.65029702893705       35.30529521544027       41.35497210680374
C           17.40386924438844       35.57625686300899       39.63754884639474
H           16.47819092879397       35.46784032368492       40.19270762974941
C           12.52299785553609       35.87726568769622       33.81487338866281
C           12.12255020519309       35.23041437408629       32.84999064747375
C           11.61343162917332       34.51748261017639       31.74135751240537
C           12.12867256473160       33.26473869792007       31.39024675729554
H           12.94660497365959       32.84438001104986       31.96301543415129
C           11.58172834343401       32.56629860270613       30.32754131740309
H           11.97803458503510       31.59232536955369       30.06482493792812
C           10.52868438173887       33.10704830501369       29.60073713425261
H           10.10308051419273       32.55596977950634       28.77052589069567
C           10.02305136420317       34.35661700699963       29.93701099474960
H            9.20776966231794       34.78427763690109       29.36462911473379
C           10.55575051174677       35.06154065757309       31.00179925992477
H           10.15777790296656       36.03249428158859       31.27532527837959
C           10.88892155978836       39.64991196365045       33.86984327041122
C           10.49499134967236       40.78181486485986       33.63967683597708
C           10.01361801033930       42.09669561578606       33.41921946292003
C            8.80421014759318       42.48708891350175       34.00806967562183
H            8.22610606764598       41.75858714709459       34.56240972994381
C            8.33652439257509       43.78138142442820       33.85758493316859
H            7.40339116537226       44.07128190535306       34.32673776624240
C            9.05796978436083       44.69879201537780       33.10477728841012
H            8.69261609607182       45.71203945584482       32.98758456431160
C           10.24298262785185       44.31144584802323       32.49276002206400
H           10.80022804474186       45.02129196478987       31.89231107942932
C           10.72248292716866       43.02079644897537       32.64711177602824
H           11.64315374950323       42.71971552900191       32.16311967903161
C           11.66625310788611       32.39271285965258       37.43950345728474
C           12.81718691471035       32.01240056757662       37.60182656347476
C           14.15180613645455       31.57630610443796       37.79285407450715
C           15.08936912509185       32.44513075112532       38.36230878374022
H           14.77547511806276       33.43835195585076       38.66562694201050
C           16.40608194127945       32.05196603965634       38.52219061016122
H           17.12726420371847       32.74463248170080       38.94209178815361
C           16.80303516887215       30.77762958794370       38.13335149390669