470
 energy: -763.663962366076 gnorm: 0.000772308939 xtb: 6.5.1 (579679a)
Au          -2.36920185800001        9.43404402023841       21.37541536518137
Au          -1.86758033595683       10.92875451681875       18.90135816426217
Au          -2.87329221388121       13.57422460112769       20.00913620529068
Au          -0.40832281583329       13.25855527442235       17.82074577846925
Au           2.38341688922676       12.56510073707026       22.03936067869493
Au          -4.44725413669160       11.08861192033174       20.30908958983021
Au          -0.30919730386832       12.73087211184997       20.85222364802446
Au          -2.78035314310994       12.18465988068573       22.56171311714568
Au          -4.46452811523248       10.10325438544653       23.52719216309480
Au          -3.78960505382434        8.65956055160587       18.88973814285325
Au           1.07141338577572       10.96514563610097       19.08585048194341
Au           0.61413413740435       10.14304532426811       21.91715943616729
Au           0.01927448712108       12.44951850114610       23.66217192429678
Au           0.99093162807608       15.01257664984374       22.42940270425663
Au          -0.34759883302645        8.46380839952514       19.64005126942882
Au          -0.30882556824423        7.40928163069055       22.40448485727193
Au          -0.43831643281319       15.35594103102388       19.62126592349311
Au          -1.97743374744444       10.50082454000379       16.02417265591920
Au          -5.25651356431847        8.44469001555891       21.39407120602944
Au           2.15629458418997       13.66147921754593       19.29954246550693
Au          -1.55215581140696        9.96171788861183       24.03943512803679
Au          -4.90585841273371        5.86183758362342       18.82417437140447
Au          -1.79921453171915       14.85612644931226       22.52467323836762
Au          -2.67890828150695       15.51017766037326       17.47408892022544
Au          -2.98899833168072        7.36925401429974       23.30220888941464
Au          -1.62885201335077        6.19294733552173       17.47639297652556
Au          -7.29935018528947       10.59450787049956       21.92200019635474
Au           0.94035245900461       15.84304380141123       16.87613767561486
Au          -2.38847585891010        6.52392924213349       20.39546686443231
Au          -1.58074442330822        4.64277482024198       22.90877008668361
Au          -4.57802205519432       13.76107996705422       24.30169843746116
Au          -0.47804834412588       17.61594414649591       22.44963338695174
Au          -0.15692401110578       15.41356867415507       25.24477449719548
Au           4.36279582893889       11.62518836841144       19.07115122170604
Au          -0.89292845191742        7.28304998020934       25.55541474426481
Au          -6.29499849230753        7.82764422103639       24.17543891073927
Au           4.30999626332551       14.75454036500068       21.05129085478764
Au           3.19796427292492        8.88752618596163       22.50385132046214
S            0.54605918115330        7.06195628895696       17.76523822608987
S           -3.61859566703610        4.97084342788235       17.06334657836728
S           -0.95062319930232        9.46372786313233       26.41989745614223
S           -3.03335065764124        8.45212003466529       16.44099795945211
S           -0.02353803523791       13.21455003615506       26.04519331474454
S           -4.56604421931165       14.44983901303277       18.39503829857595
S           -3.78617496005558       15.90320061685865       23.72691773643237
S           -0.79442134581072       12.44480451214603       15.49328713928969
S            3.10016469035221       15.15445146409916       17.45858597147306
S           -6.80174286860037       11.92150313328317       20.06323566720656
S            5.79939526060437       13.30291330026616       19.94059442287890
S           -8.00132970084958        9.39223651774073       23.81345650269319
S           -6.43646468314524        6.44372832003701       20.49957389661460
S           -5.61450482920861       11.78172499635929       25.02770480748659
S           -4.68012250740459        6.23846718726816       24.76327323771445
S           -0.18185066213469       17.71667064517107       24.76925777248115
S           -0.65852695018726       17.77568383356343       20.11976148267167
S           -1.12140892360434       16.70098617513775       16.15530295883659
S           -0.60998538946207        5.00203194473376       25.01374596573569
S            4.22445394377768       10.86290258658364       21.78967996376973
S           -2.45594920963920        4.00006798058610       20.82710203760400
S            2.10302786851615        6.86334039662652       22.93097795681542
S            3.07727645066551       10.00610376623566       17.93885113065450
C           -4.83670670986836       16.45353134367738       22.35881127535793
H           -5.47589048048986       15.63518547585500       22.03471595230847
H           -5.46590359697796       17.25232295189862       22.75423535541750
C           -4.10331576969726        3.35534120216668       21.19748734067697
H           -4.73461497197080        3.52037041299799       20.32293352532686
H           -3.97325801655204        2.28010255974378       21.32691906385432
C           -3.98496941382895       16.95887413516287       21.20696391285917
H           -3.34433438130960       16.13432358891087       20.87766678893530
H           -3.31499302443020       17.74080239924861       21.57580637920649
C           -4.72110899503896       17.46494206498918       19.99266332375066
C           -3.19586909469414        3.29268338730003       17.57424594292952
H           -2.91235885269556        3.29114496518453       18.62851348014182
H           -4.08235085842443        2.67036858907430       17.45040774425939
C            1.92673393304235       12.79774531134201       15.16250626780792
H            2.19797329106852       12.86085311139744       16.21964965554535
H            1.57544912103274       13.78254209724656       14.84527786617301
C           -5.26025667044192        6.06363300979254       27.43977112563904
H           -6.27215727907701        6.36896698336305       27.15913327275479
H           -5.05069199250229        6.45175637290045       28.44168753469695
C            0.99214556351352       18.31062155103514       19.63345262372328
H            1.73014743822796       17.58947574916300       19.98280614641782
H            1.00480411528295       18.32563060581345       18.54249780394742
C            6.26080916824974       14.25494325374253       18.48301616487377
H            5.36976665331825       14.47071523801234       17.89187512540891
H            6.69902067417732       15.19594862313863       18.81486896638399
S            3.03965822728763       16.43299932254375       22.08345432097791
C            2.70832511042844       20.06996737326307       19.65755901079820
C            1.34411607912754       19.69248850423799       20.17512023752632
H            0.59149132475346       20.41729052357769       19.85541008621851
H            1.34400243950832       19.65666343461745       21.26853112615946
C            7.43516793171108       14.25770037547005       16.33016263109029
C            7.25828330327177       13.49084623774198       17.61612132219148
H            6.86556975983394       12.49169029777269       17.41005883524716
H            8.20731297886770       13.38479887812266       18.14871664913726
C            6.77744609874727       13.84857629221036       15.17449154339600
H            6.18454487307644       12.94072427245031       15.18715908127457
C            8.28409237528776       16.17662321079791       15.14026592933834
H            8.87119319126048       17.08831504407452       15.13165759234690
C            7.63011536694950       15.75982724698337       13.98876017055906
H            7.70459159815788       16.34446671424435       13.07896775308344
C            6.87873630575633       14.59264441813237       14.00733703084765
H            6.36836670292756       14.25833581856632       13.11091255865657
C            4.74808403625976       17.27068493373967       16.91862848572390
H            5.19690288351751       18.19791243236580       17.29140602511358
H            5.55494506541032       16.56929214513256       16.69118694860494
C            3.94523873904737       17.55067071656864       15.67464972951857
C            3.87403564290774       16.69032743737577       18.03018859326669
H            3.11785408575661       17.41553311241519       18.31955582501749
H            4.48749986760100       16.47200679675943       18.90540916679965
C            3.10821788600683       18.66224087012939       15.61051943160033
H            3.04059032781029       19.33591970314362       16.45809429295849
C            3.27523444916114       16.94653136213693       13.43709521536340
H            3.34062451083018       16.27190164869502       12.59057945353424
C           -1.77944203893800       18.24357768108304       25.43340404730171
H           -2.59262925824557       17.66679744718250       24.98658184810829
H           -1.75445084677336       18.03874855984431       26.50318517358214
C           -7.15156334480580       10.48930435765114       27.50141797561643
C           -7.67368387293387       11.70728422924340       27.93067960156922
H           -7.01416063203526       12.54249306070086       28.13834370734945
C           -4.93556478245251       11.44986932732461       26.67005242998287
H           -3.87790886223525       11.20060410499369       26.59682854466793
H           -5.03611556979861       12.35287390383894       27.27073867611734
C           -8.02530539036690        9.43092086545017       27.26803678594592
H           -7.63195585130629        8.47253032291918       26.94469309728798
C           -5.66749603838480       10.28177122670393       27.31933183983309
H           -5.50678841277998        9.38987709129809       26.70609296593858
H           -5.20829126248530       10.09548967934367       28.29821521666177
C           -8.65163110715748        4.64177424971136       19.10681851278950
C           -7.70526208382983        3.62214658445396       19.09510581722244
H           -6.73995683660285        3.78976794921988       18.63003730084778
C           -7.91727996408357        6.99271878866197       19.62273847330937
H           -8.70172347926346        7.07841332705787       20.37711426237198
H           -7.75576432734545        7.97530060621605       19.17888024201919
C           -8.34085766300237        6.00168171808055       18.53839241529722
H           -7.54081034985346        5.92730893066659       17.79682161949819
H           -9.22684881589128        6.40859891587906       18.03977729039678
C           -4.26354043145389        6.68880117938910       26.46282689202855
H           -3.26079495110344        6.31288894875472       26.66801199088778
H           -4.24762983404178        7.77076759688977       26.58149900425448
C           -2.03724619154454        2.75066095244331       16.73912434101290
H           -2.38162355471070        2.52272785142297       15.72712630670045
H           -1.26434243893047        3.52180742614246       16.66797997946594
C           -1.46323580098023        1.52754887927639       17.40745785594455
C            0.70150524547930        8.13157441729478       16.32533782270667
H           -0.10428692055114        8.86772505438457       16.31636546566448
H            1.64823325623535        8.66774233167348       16.41231487632294
C            1.97026281415190        8.72827033415068       13.39383525741120
H            2.88681646531849        8.37755404343184       13.85600011817348
C            0.74042548565673        8.26886619573145       13.85821384521270
C            2.03026751557271        9.62683985221810       12.33842176546410
H            2.99279680237113        9.97139798012891       11.97775349290460
C            0.66965494295070        7.32541768547361       15.03050150836650
H            1.51037208779609        6.62684677527289       15.01908142015906
H           -0.25600909821060        6.74457778342866       14.99376459385418
C           -0.42821420502322        8.73357837710739       13.25941459428883
H           -1.39096694010344        8.37233593498376       13.60438503050812
C            3.11338055261054       12.38338341404171       14.33415412036937
C           -9.04154028210237       11.86530800244650       28.10418348162420
H           -9.43335145207729       12.82034755383795       28.43583954269796
C           -9.90574162430535       10.80669166865561       27.85903364053623
H          -10.97334649413655       10.93010638474954       27.99961307216818
C           -9.39200751823737        9.58549154403599       27.44570924393540
H          -10.05840698835221        8.74969981485792       27.26215178496577
C           -8.28141698196318       13.46539736976775       23.48874458861253
H           -7.39361867714709       14.07780418741012       23.60872947893885
C           -8.82214754899054       12.82289481659113       24.59121040286436
H           -8.33741495287486       12.91341734153431       25.55660384622051
C           -6.84991625206148       13.59635650032832       20.73497489295746
H           -6.22750272522392       13.66327241036688       21.62759403366239
H           -6.41903651243347       14.24272801596133       19.96721481699062
C           -8.87082264450239       13.33794757544188       22.23118425548143
C           -8.27844470067187       14.04125115819516       21.03799469317061
H           -8.25771389795866       15.11944509177541       21.23380994281299
H           -8.89987813766111       13.87222920233952       20.15459999731469
C          -10.02130664593317       12.56090903627551       22.10410293870112
H          -10.49556405868608       12.45801750058560       21.13422327684769
C           -9.97158717735831       12.05703532563375       24.45666129038622
H          -10.39440279611893       11.55689711728088       25.32042585739198
C           -6.08433394624675       17.28205230193791       19.79346373240639
H           -6.69394510135271       16.80686953331459       20.55313903037125
C           -2.45183694147798       20.05740994981996       23.80704252407837
C           -1.98858545029369       19.74294349587364       25.20551763837373
H           -1.05699909389190       20.27087823194841       25.42543319926215
H           -2.74701209583873       20.08405645440996       25.91808644077814
C           -2.03151402178270       20.91128694840815       21.58664103998026
H           -1.34797821821904       21.34797885630898       20.86719881081506
C           -3.77267849898619       19.80515609528917       23.43960381522727
H           -4.46014589593880       19.38111253100991       24.16377449611958
C           -1.58386102013437       20.61196372289402       22.86803598938817
H           -0.56181693578630       20.84118902276110       23.14807874089768
C            5.09995280649015       19.75916285833497       19.68101551776460
H            5.97977393942612       19.29070197532497       20.10821841421047
C            5.23243159903580       20.64549639673269       18.62004212151889
H            6.21369894104049       20.87017318607844       18.21811550253519
C            2.84611811117442       20.95655012390100       18.59352854808867
H            1.96716273802779       21.42715234588098       18.16631895101951
C            3.84517683081330       19.47096326511414       20.19666846659702
H            3.74454212807867       18.77217745073771       21.02205428403195
C            4.10344161292638       21.24639117625353       18.08010524980556
H            4.20071948390818       21.94184627196658       17.25407805085332
C           -9.22521441783667        2.15541721187148       20.23990989961433
H           -9.44627084691762        1.19224749115790       20.68510750128853
C           -9.89720737164627        4.39629249402786       19.67998781783172
H          -10.65302879116066        5.17447422829326       19.67242605211010
C          -10.18284326513290        3.16027211924272       20.24139821687144
H          -11.15691452394589        2.98059182189770       20.68272672116959
C           -7.98486580119709        2.38848496785659       19.66357159167504
H           -7.23204658448154        1.60808252438653       19.65525702504062
C           -9.44968672262161        8.45520503259372       23.28877003796812
H          -10.29514040626757        9.14234129785467       23.34509079507944
H           -9.34515770901062        8.12316931114545       22.25605737036189
C           -9.67570682859834        7.26343682396869       24.21267608302479
H           -8.86232003551902        6.54581034268418       24.06615863496537
H           -9.63660698629073        7.60042324159256       25.25127212051424
C            8.18708477066438       15.43049311373518       16.30623481599070
H            8.70144685833258       15.76011483728291       17.20299128742083
C            5.14561089195164       17.25692021246533       23.66761223289613
H            5.08234107971956       18.18114857655911       23.08685167026910
H            5.43766719089220       17.52199794208213       24.68995573335979
C            6.19587736793280       16.35059334747023       23.07815943970225
C            3.75952905547082       16.61553469934843       23.73299670979639
H            3.08582968285983       17.26583795497382       24.29219754651739
H            3.80665106673535       15.65158293759964       24.23858848035127
C            6.56561053423912       15.17465800930968       23.73157050930260
H            6.08564604870990       14.90206862954268       24.66547881796238
C            7.83319388404218       15.87299317769983       21.36366099776652
H            8.33061603383358       16.15617427361288       20.44271247813930
C            6.83919304876341       16.68817109760474       21.88814323391048
H            6.57373065252629       17.60634391154712       21.37650147768205
C            8.19211611835566       14.70451999512504       22.01914687733513
H            8.96554594112555       14.06501582519183       21.61001018881130
C            7.55873259616232       14.36047077585077       23.20597808788306
H            7.85227808888797       13.45997704165465       23.73389121236309
C           -1.25652748174156       12.40526916258181       28.94978506482471
C           -1.72602911421710       12.91963522168714       26.56476823555298
H           -2.42603675051149       13.43547615667794       25.90545094818403
H           -1.90019870988515       11.84626484230449       26.48068726513269
C           -2.54146683602572        0.71116965829099       23.13093914793150
C            0.07526008881952       12.59657648219415       29.30705009877744
H            0.61166252724245       13.46116576193911       28.93191892863812
C           -1.94376462931168       13.36333672281661       28.01135062436722
H           -1.56092745169779       14.37850088262264       28.14365007608211
H           -3.02015242969573       13.37462924384698       28.21123573869688
C           -1.40266390444794       15.86671116487251       14.57735915333888
H           -1.56733892961378       14.80104575830245       14.73948707032331
H           -2.30880093043776       16.29739094003519       14.15087851482484
C           -0.22357082074655       16.07308279534567       13.63443577874082
H            0.66988499645179       15.62708293853909       14.08406237932430
H           -0.03459143032081       17.14316856853888       13.52041698170729
C            5.92806826437418        8.47287863550187       19.19244480717221
C            7.95881030907264        9.54572508731359       20.77881963180648
H            8.75594937917852        9.95312414264005       21.39025259063664
C            3.45436921980018        8.46546153421736       18.79625262281404
H            3.42938555345085        8.61010533224991       19.87779283642443
H            2.66674807379727        7.75890962138188       18.53000650802581
C          -10.57368977797891       11.93289595105334       23.21275349801779
H          -11.47733945859743       11.34368142400931       23.10157460001736
C            4.81006191821925        7.89932421920568       18.36604622855133
H            4.96628473350375        8.10603275748094       17.30442573680457
H            4.77983618107240        6.81298399141903       18.50027640407766
C            6.15876251624359        7.97939010034075       20.47542395324435
H            5.55249767829806        7.16306192108579       20.85462690454713
C           -1.26427585200782        2.61041159678680       26.15772286894695
H           -0.24287368069540        2.59683576682041       26.54780609468794
H           -1.91169274616929        2.09117092183262       26.87186502848085
C           -1.73585943315411        4.06296388754447       26.07182956442190
H           -1.71339347665385        4.50671782006230       27.06634671566277
H           -2.75490435733222        4.11097422984902       25.68793660046621
C           -1.31491921739058        1.91641040306317       24.82252392222755
C           -1.40611289257763        0.65207053296965       22.33550859701934
H           -1.44262743236594        0.15935496167920       21.37073254453635
C           -2.50157758828821        1.35081914749919       24.36219932447146
H           -3.39429609485995        1.39734889754110       24.97687143280653
C           -0.17570985284454        1.84722031744733       24.02122904657143
H            0.75403921853775        2.28060368235618       24.37299282137734
C           -0.22330103851134        1.22334181475665       22.78269446832111
H            0.66925215199132        1.17973938693625       22.16890774841652
C           -0.40553809389428       -0.71136593126592       18.68777879920271
H            0.01349398538077       -1.58198301067642       19.17942806273641
C           -0.55477110707941        1.67757614804483       18.45264781500925
H           -0.25690652293052        2.67176546306322       18.76903499056338
C           -0.02015923327785        0.56334930269877       19.08122889136764
H            0.71032084590878        0.69033955387263       19.87207529875054
C           -6.10736281774860        3.34334904781172       22.74103708177740
C           -4.76577171706215        3.95951661922562       22.42837396059102
H           -4.88055850491786        5.03592751278788       22.27943302815005
H           -4.10671406197923        3.81773975200045       23.29253984390300
C           -4.15650971039754        2.54028623474803       28.31313394739458
H           -3.51263093067000        2.05197017681594       29.03619763949870
C           -4.83784166643441        1.78708543156665       27.36608267190458
H           -4.72673609221885        0.70901888653273       27.34598710123165
C           -6.62252425495012        8.21243887378282       15.97125679487143
C           -6.47417197176345        9.32283978248295       16.79737568274271
H           -5.48810601127298        9.70229296237779       17.03298633337639
C           -4.22433614962274        8.29635094322431       15.07743699582592
C           -5.44884073989565        7.44986809430583       15.40511099273211
C           -5.17763079435397       12.64789586902795       14.76932637390243
C           -4.80221856625258       13.12619983852485       17.19056795769283
H           -3.90099408025046       12.51864197740465       17.09757531616420
H           -5.60490105844442       12.49036981570749       17.56633437874007
C           -4.04737811505938       12.45407482161547       13.97833522480691
H           -3.17801303522840       13.08785542517657       14.11585957099263
C           -5.17724587497608       13.71489262784662       15.83185779312276
H           -6.15914041394536       14.18974700971593       15.90616697774867
H           -4.44835198192643       14.48816396751160       15.57291238017276
C            2.61815564228007        5.84350525730663       21.53175700834334
H            2.64559922229223        6.42965216185982       20.61394495488781
H            3.62760704890032        5.49099014361055       21.74701338763962
C           -4.21795499845627       20.10603802599829       22.16079005829893
H           -5.24983132297525       19.91288513780065       21.88927323572936
C           -3.34654486972422       20.65709744563992       21.22948554937265
H           -3.69586602261549       20.89018887622338       20.23034408856888
C            0.03597928236316       10.57180725792639       30.60666117651174
H            0.53526178821345        9.86494830046448       31.25953861215583
C            0.71683813002471       11.68744186821840       30.13568397221832
H            1.75286863990382       11.84759347555270       30.41262336095200
C           -1.28838782240339       10.36770379453273       30.24157995423508
H           -1.82269345867849        9.49487522319186       30.60010608114884
C           -1.92971968042401       11.27899599521899       29.41560907063259
H           -2.96453633785437       11.11386743075516       29.13333220897680
C           -6.29061593998502       11.83499982467177       14.57573079554986
H           -7.17307307484360       11.97232060733120       15.19111622512675
C           -6.28022497272673       10.85554292475647       13.59278766621577
H           -7.15376208070331       10.23029070988527       13.44587698752246
C           -5.15409157515966       10.67417369952096       12.79905275372676
H           -5.14988139837040        9.91372452681358       12.02661848655686
C           -4.03572860799921       11.47345921628242       12.99664292942482
H           -3.15438303959970       11.33966961140342       12.37922468130470
C           -8.86382977097511        9.52542746774408       17.01540226030396
H           -9.72970142222667       10.03441660842621       17.42286260550381
C           -9.02428433418007        8.42922959518816       16.17880230518389
H          -10.01844045330583        8.08063509262705       15.92208690632240
C           -7.58531052509324        9.97000868012507       17.31973615810297
H           -7.44968920311947       10.82980805867187       17.96711588441296
C           -7.91183187465277        7.77874689755906       15.66375347013568
H           -8.04734662411318        6.92275372138462       15.01105167626243
C           -5.93413416425746       18.32012239616531       17.62471950206157
H           -6.40557052488595       18.64368539112978       16.70391622177923
C           -3.97339888740745       18.09855318355394       18.99743483814211
H           -2.91341584771212       18.27086682476753       19.15563059673865
C           -6.68562462287376       17.70664122945188       18.61514159815681
H           -7.74922384260204       17.55081593622120       18.47229043467166
C           -4.57416042653997       18.52272277733443       17.82169919114955
H           -3.97879359013153       19.01318419021354       17.05998831292147
C           -1.85157317548499        0.24848868272257       17.02148088230992
H           -2.56355170135289        0.12172504603781       16.21278417078400
C           -1.32629165318022       -0.86592346100190       17.66087411069467
H           -1.63354932269742       -1.85895908434163       17.35185033079898
C           -5.14050515839975        4.56053830420872       27.43085427949971
C           -5.66824013686554        2.42001266762096       26.45093423811133
H           -6.20344859779931        1.83739725730944       25.70966882914081
C           -4.30322184551029        3.92058319250712       28.34160339938957
H           -3.76888256723514        4.50383008098625       29.08435937859166
C           -5.81983968855928        3.79857759227636       26.48316962602802
H           -6.46921913273802        4.28605235331230       25.76467318166704
H           -3.46101982309251        0.24593059982664       22.79413844568852
C           -0.67499451668807       14.05981691910609       12.19375064830748
H           -0.61754113072535       13.44244250439734       13.08359247889192
C           -0.93812684693093       13.47294851749545       10.96595132290163
H           -1.08862574945054       12.40096811071882       10.90267732744145
C           -0.48966660616297       15.43733058929023       12.29331520873651
C           -0.56768530754056       16.21517109102087       11.14244935210026
H           -0.42532804560160       17.28883480204368       11.20661335932316
C            1.67765271529917        4.65457559601459       21.35911464101367
H            0.68630471997888        5.02920455840983       21.08665774914705
H            1.58891767123539        4.12088476938707       22.30887709705437
C            2.46730600498842       18.07390363912575       13.36773323216351
H            1.91350810052961       18.29130449398063       12.46143165802804
C            4.00660053320492       16.68448156872823       14.58628520924744
H            4.63626926200472       15.80287589599362       14.63630790900859
C            2.37538480108373       18.92396636071755       14.46176828493059
H            1.73548494948460       19.79829488558429       14.41837329432784
C           -0.36813607515460        9.63887606401103       12.20960236331043
H           -1.28444081813325        9.99017002401123       11.74814482591424
C            0.86167586147169       10.08844196949755       11.74713687147302
H            0.91052347715572       10.79251991152004       10.92453311173032
C            4.40071719326700       12.54711349523070       12.30179086474162
H            4.56887949796321       13.00795855633826       11.33488433781584
C            5.00986629081252       10.93606217464302       13.97837745886459
H            5.65588297802219       10.13752306735937       14.32593065636348
C            5.23537709189072       11.52745814171437       12.74137571992082
H            6.05987653633659       11.19455806806656       12.12150260959056