560
 energy: -820.356122275746 gnorm: 0.000679823543 xtb: 6.5.1 (579679a)
Au           6.90860089808660        8.42250074019575        6.17114922952895
Au           6.92691472152328       12.11266820935695        6.36671900362148
Au           8.71947062789719        8.11624159557820        9.30591865299205
Au           9.73856401660853        8.45676003670859        5.10099801560836
Au           8.77753162966785       10.13831448578170        7.32610487859522
Au           8.91067408549738       13.88595055575556        6.91516005129556
Au          12.40503207644808       14.01132413945706        6.58850277169066
Au           8.73243115611821       12.16608763063290        9.32679411363270
Au          11.10521210030174       11.69325487199005        7.77120823697234
Au          12.84934378093750        8.68902460803688       11.05341932130051
Au          13.48156127399365        8.55663192955875        6.24930346246146
Au           6.14619937147461        8.69234220486811       10.44959020871795
Au           9.52691682433729       11.90459347431305        5.12239779104800
Au           6.57384876757828       14.03464909642453        8.80354714827055
Au          12.60298234823175       11.79635861429232       11.36137097027067
Au          11.13889539890279        8.62242659892181        7.81655811077420
Au          10.64768366760567        5.82768806464146       10.19193898353167
Au           6.24741806556893        5.83297420484800        5.02681573370742
Au          11.89325922817106        6.27853133266670        6.31220492648610
Au           8.71129835223127        6.52054015802358        6.74014963988412
Au          10.50620442444927       10.13369294837305       10.20127284615128
Au           9.22688425578776       11.38039808722862       12.53622632969418
Au           6.48950649243846        6.47550418656469        8.71161387092349
Au          13.17076800456089       11.39985479159434        5.88703788510869
Au           9.65636372739489       14.63366331996814        3.98065569508242
Au          13.64557902188314       12.53105553973475        8.52018063909007
Au           7.24981742361010       13.25556141773233       11.37659701697217
Au           9.42513912311221        5.87826460350831        3.68256021793629
Au           7.67652096580348        6.47226556319013       11.23557848916510
Au           9.58864349918288       15.67347106443049       12.76805569835636
Au          10.66149790044452       14.15976506296895       10.38114428537225
Au           6.60651080204477       14.90414929511820        5.24017639593399
Au          13.23154040174908        7.07353111355074        8.62059894474428
Au          13.07255157126273       15.65779232587118       11.07407316504027
Au           6.01285893886390       11.45731604594000        9.61353356573215
Au           9.62773252249445        8.36251805173312       12.46003545919303
Au          13.06025157467824        4.25119326152641       10.84764479661801
Au           9.56751732300796        3.93878230507290       12.31534274412295
S            5.34873319320997        5.06389489464460        7.05075730883922
S            5.29874134564164       10.28717338629215        5.96137213681033
S           11.36741533092735        4.79861965790701        4.42479867477633
S           10.19022882753642        4.96078457777465        8.00932644307956
S            5.78399026535820       15.77409499440962        7.26850259740511
S            7.62119593047218       14.51572116089644       13.41981132283320
S           14.67374892842401       14.30597423863734       10.02570230323888
S           11.66421170039970       15.52678861050670        4.78768169008675
S            7.75499379051538        5.11207849308686       13.25282661892157
S            7.23925889881574        6.50203444407798        2.98749205040644
S            7.47172276633608       14.14516453423700        3.17568858035308
S           10.56583801894463       15.19924134897836        8.23651802957944
S           11.44938470033745        2.68525196768728       11.60333864649935
S            4.17950183161830        9.87906358842615        9.48369872409778
S           11.55205905727465       16.97621314624820       12.33823472870055
S            7.59987071205045        9.64347158943801       12.62970279518526
S           14.67485909424593        5.80911432942633       10.14589188547805
S           14.16891593715527       10.45049602000730       10.11533192931845
S           14.58421890394476        9.87989990529683        4.54941968131664
S           11.10046405736220       10.28835757021965        4.15953568679390
S           11.51913320946543        7.04754620542092       12.07594200027856
S           10.91664453379906       12.99719524783254       12.46836969130505
C           15.79557259360033        4.94864471958156        9.01890069029153
C           16.69402108814281        5.99892010156431        8.36300605996795
H           16.07918658832203        6.69941949454013        7.78921319918256
H           17.21902834691243        6.56854955543403        9.13475264075776
C           16.65397122298974        3.98410774470880        9.83989720536986
H           16.01126056631357        3.23972415972174       10.31951572204680
H           17.17499567033425        4.53530685125811       10.62789041349626
C           15.04882742821955        4.16907827680741        7.93794810087351
H           14.38982712769709        3.42871444307736        8.40209320125033
H           14.42027145252352        4.85182578670785        7.35850631698715
C           16.05684141689754        3.47851272484442        7.01323498680700
H           15.51319623882478        2.92273044624865        6.23934563354466
C           16.95088186433617        4.53523952879469        6.35413192399091
H           17.65958934876764        4.05441078545007        5.67307807835726
H           16.33884658319435        5.22933802011485        5.76942183417196
C           17.70459058876255        5.30799565942117        7.44091867461931
H           18.34510105432349        6.06675523492818        6.97438352073496
C           18.56782588209640        4.34395989079569        8.26203395665561
H           19.11479888067726        4.89795970430153        9.03136447478826
H           19.30079851948523        3.85494262438818        7.61315435424733
C           17.66574932036497        3.29139476216986        8.91702238806411
H           18.27871890928999        2.60122994196241        9.50957604035620
C           16.91717359759770        2.50911058547507        7.83158440087367
H           16.28152539081202        1.74655542618392        8.29237996569224
H           17.63228294802509        2.00163037683211        7.17699184624603
C           12.34418238783626       16.97505034657505       13.96448981253170
C           12.60939506426669       15.55634494754447       14.46622332477151
H           11.66889686723159       14.99993741167392       14.52385453600640
H           13.25584120097413       15.02990859355304       13.75683993482805
C           13.66882120060728       17.73129374510600       13.85128886837848
H           13.48676459484210       18.74085191311491       13.47196718089090
H           14.32167210511854       17.21883547834242       13.13790763305815
C           11.42556641290774       17.70282411076673       14.94666467944055
H           11.21703138440542       18.71177091189715       14.57952764684830
H           10.47265772881045       17.16959569527392       15.01864777635732
C           12.09608264729444       17.76377870487955       16.32472793785764
H           11.43262406391027       18.28601469667220       17.02505454738757
C           12.35539827525622       16.33939094763067       16.82912640550291
H           12.81972459117807       16.37306594197027       17.81948360109806
H           11.40844804543149       15.79782135743581       16.91869794054040
C           13.27862464460004       15.61419499923959       15.84311564585336
H           13.46407699227612       14.59265580070490       16.19705555537985
C           14.60918039976322       16.36767623646149       15.72970816299516
H           15.27378153866664       15.84590238641403       15.03377080199527
H           15.10312191809657       16.40255354101262       16.70559246570073
C           14.34238250958721       17.79176226510237       15.22808461581989
H           15.29193212092509       18.33410776175370       15.14075985375904
C           13.42374784116533       18.52240953408196       16.21430391871237
H           13.24142142686348       19.54422461770969       15.86700056871733
H           13.90261157288453       18.58068932680567       17.19659063491723
C            9.96274043695784       16.90351595169937        8.33894888777055
C           11.10993090484780       17.82165187160072        8.75821682799854
H           11.48630823666935       17.51973501489178        9.73882334014970
H           11.93163915870696       17.73925628391212        8.04124242429294
C            9.46393138380300       17.32423994929485        6.95695363962825
H            8.65482636783253       16.65808096076870        6.64235472124076
H           10.27303974778548       17.23453764366853        6.22546683718953
C            8.82221287776118       17.00189926783225        9.34615774519171
H            8.01147399124891       16.32639337122411        9.05635511132492
H            9.17326369930229       16.69018690314929       10.33390030248250
C            8.31299260931657       18.44356780557531        9.40780780355615
H            7.49489570563491       18.50626053064662       10.13593130631065
C            9.46143185895032       19.35949824067522        9.84599536904867
H            9.10903341302263       20.39248312060652        9.92141469164650
H            9.82493009749287       19.05122298430146       10.83224635538476
C           10.59984306796896       19.26703670569523        8.82363745225967
H           11.42353934948778       19.92264765838332        9.13133854110193
C           10.09165141985973       19.69512398981811        7.44238107405520
H           10.90604545100557       19.64281748659156        6.71310050334566
H            9.73727972237637       20.72968128184009        7.47965121021322
C            8.94961574574679       18.76637613046304        7.01489705764352
H            8.59022213093144       19.05766705719878        6.02013695544011
C            7.79961390229864       18.85582409834262        8.02423225391246
H            6.98489166918077       18.18802703571158        7.72080087762611
H            7.40804935976581       19.87690099582376        8.05787070003412
C           15.73337397089553       15.40525564036052        9.06191999932257
C           16.78559499923314       14.54462356168849        8.36034752206639
H           17.33708859991390       13.95854728056129        9.10054021027909
H           16.29087176873785       13.84542678643359        7.67856086302860
C           14.95065870364431       16.20454518349950        8.02355479098780
H           14.18669939732998       16.81091215863834        8.51961052976809
H           14.43541393717898       15.51889733553205        7.34218534265010
C           16.42549382081205       16.37068752254808       10.02727790748665
H           15.67258527859012       16.97803010946184       10.53870158762165
H           16.97033181972362       15.80345898382175       10.78721065776940
C           17.38723659683051       17.27422854600043        9.24516707629952
H           17.87825301315902       17.96479456437483        9.94177562256374
C           18.44529578606057       16.41089129647099        8.54843769807960
H           19.14516282489820       17.04850105993912        7.99966897173558
H           19.01561536176941       15.84659359454514        9.29294316815463
C           17.75093280537429       15.44578695562280        7.58136477786163
H           18.50291361009448       14.82189619469949        7.08226844269186
C           16.96558762857526       16.23879316759440        6.53273521352935
H           16.48216737856437       15.54399395307168        5.83958755914871
H           17.64330102332400       16.87426481773468        5.95447637354071
C           15.91076185620833       17.10196367389716        7.23510786782559
H           15.34278183164228       17.66955518115370        6.48767486302450
C           16.60139353687952       18.07363444880326        8.19926293491192
H           15.85343353939633       18.70091943079634        8.69425683337892
H           17.27874572618568       18.73022356946420        7.64468906539537
C           12.91221298466976       15.48663968225128        3.48391906004850
C           14.16239675320672       16.14922099650122        4.06268215784261
H           13.92137107699107       17.15804309955233        4.40945030654368
H           14.50202873984649       15.56819388617499        4.92406374311721
C           13.25472758552290       14.06697910521418        3.04101431171452
H           12.36123910365426       13.58097197858320        2.64167767894754
H           13.59485522756822       13.48117620608354        3.90015531771784
C           12.41282128040341       16.28993053484896        2.28169184170860
H           11.51413506231544       15.81769936728828        1.87160419142962
H           12.14431237745524       17.30163424606365        2.59870630722648
C           13.51407672292165       16.34110905716866        1.21377333720968
H           13.15373711669328       16.91939548601574        0.35402392659459
C           14.76549526815185       17.01044537772379        1.79390509640522
H           15.54706248826751       17.06216496028571        1.02976251561149
H           14.53129778713022       18.03280782740197        2.10656266165235
C           15.26185517980224       16.19890105266648        2.99588385472292
H           16.15356736418323       16.67773070996743        3.41883107036280
C           15.60568153232644       14.77161411475620        2.55536604638105
H           15.96541981070666       14.19449124195536        3.41367707267994
H           16.40207791670701       14.79133135566917        1.80528701611283
C           14.35211870153191       14.11035273230647        1.97240258533447
H           14.58828555250886       13.08583962922847        1.65892620267824
C           13.85758564471786       14.91641624869044        0.76570149848737
H           12.97018206170515       14.44041661230393        0.33700216470390
H           14.63119008280259       14.94323826365174       -0.00765544407434
C            6.82078768402017        5.17754891084184        1.82385215808980
C            5.31908678473859        5.23765629643187        1.53812608976868
H            4.76270264758933        5.06524979691447        2.46464373499064
H            5.04920307232534        6.22898606855608        1.16549380702570
C            7.60343245978096        5.43798934772522        0.53538387452005
H            8.67668290179179        5.40410238704167        0.74707695823598
H            7.36881012807530        6.43685385113670        0.15615219942721
C            7.17303230770876        3.79259218997393        2.36493999692147
H            8.24222567706218        3.74407300613958        2.59166320644266
H            6.63009176618224        3.61046482316116        3.29759538960262
C            6.81271606076866        2.72526698911737        1.32583525698605
H            7.07347889584803        1.73649708491489        1.72254106101992
C            5.30862946832035        2.78341562892965        1.03707429324712
H            5.03936265214217        2.01708301883376        0.30403272625833
H            4.74540643278927        2.58578663099165        1.95450059982193
C            4.95456798532824        4.17280898637524        0.49566450174879
H            3.87803760230531        4.22459659223396        0.29218032309284
C            5.73397132803574        4.43808207006408       -0.79774176000139
H            5.47380015010097        5.42470451011065       -1.19365708692320
H            5.46835093351372        3.69136238295339       -1.55213800982473
C            7.23769658645677        4.37287162981756       -0.50614208542166
H            7.79910023126754        4.56461713116137       -1.42867976242046
C            7.59946301094205        2.98514088633751        0.03586074258064
H            8.67391502770436        2.93264716555543        0.23837457153679
H            7.35865521919214        2.21965745667047       -0.70789879031631
C           11.02313677556505       10.29828173671677        2.34587168396598
C           12.46756950589302       10.24489108695837        1.84465765573527
H           13.01960085580076       11.11044318045123        2.22059931639745
H           12.96164295658160        9.35072987080460        2.23452148772047
C           10.24454780655554        9.08919376269614        1.82892084642394
H            9.21420289336944        9.13022437693185        2.19363464920691
H           10.69390588821660        8.16835913586527        2.20752674647089
C           10.33689364495124       11.56106820752477        1.82636811149281
H            9.30407792181111       11.59294144365545        2.18549828037118
H           10.84679329042438       12.44850676808790        2.20780448987213
C           10.35894785027194       11.56914874437686        0.29254561649250
H            9.87919922378590       12.48886577923197       -0.06559049616016
C           11.80770995308760       11.51706641852191       -0.20388382463601
H           11.82726072516812       11.53613411763688       -1.29776673242229
H           12.35581268258811       12.39195484181952        0.15710013458219
C           12.47558382271067       10.23764908998874        0.31178018096556
H           13.51280446295748       10.19604669420475       -0.04235843229078
C           11.70901465500434        9.01336436050490       -0.20020977841236
H           12.18481171302423        8.09841878704706        0.16412619559708
H           11.72858334558903        8.98959102613585       -1.29400552121727
C           10.26065311033764        9.07742985572346        0.29526132784608
H            9.70943857666837        8.19753875406085       -0.06003936815777
C            9.59860660538788       10.35081847760101       -0.23939849875498
H            8.55361461200976       10.39282808321540        0.07977350400928
H            9.61367678821278       10.34868484905865       -1.33355014224209
C            3.00982967913526       10.38996403764062       10.76819466319541
C            2.90309862411022        9.31091864582170       11.84679389559206
H            2.66777855904693        8.34711373884242       11.38631087069565
H            3.86645412008992        9.20897124680413       12.35602271404573
C            3.36810153676137       11.72367088439378       11.42298311981041
H            3.46323942751301       12.49956585689376       10.65793589192904
H            4.33146765096320       11.63802224095672       11.93386721957921
C            1.66426987917229       10.53585602550881       10.04818260558566
H            1.74855568709065       11.30009182976096        9.27082086840883
H            1.40560073126485        9.59398300571230        9.55977746760814
C            0.57416243543361       10.91704133434945       11.05666889443039
H           -0.38439856109358       11.01114964680076       10.53168840834830
C            0.46802077454175        9.82325534271307       12.12616042667751
H           -0.32024471546507       10.07607646572351       12.84182096214170
H            0.20520176244489        8.86943567441404       11.65785712652657
C            1.81170707340189        9.69540141926346       12.85350789602872
H            1.74119625712028        8.91632857514018       13.62273507213754
C            2.16572994421584       11.03373326810645       13.51090526649445
H            3.11376493143011       10.94692247527033       14.04778623398921
H            1.39466826386713       11.30992632001161       14.23659629382629
C            2.27883165285111       12.11371699251198       12.43120876976103
H            2.54701330997218       13.07026313025502       12.89650125685481
C            0.93163362359747       12.25318637465675       11.71604029487431
H            0.98862753484746       13.04122205652948       10.95952081349512
H            0.15660176742393       12.53545048389862       12.43527521803940
C            4.00545051318313       15.45843661425691        7.20092256770480
C            3.40645050539817       16.30523476202904        6.07612486030988
H            3.65078147604040       17.35911801266666        6.23629742758101
H            3.84272766323277       16.00157233013742        5.11926033653978
C            3.68268201541358       13.98637981057256        6.95428961543112
H            4.12027128298679       13.37404338525270        7.74804331239077
H            4.12517462989255       13.66495994090319        6.00790345511251
C            3.41168025427573       15.88728075440217        8.54335632665278
H            3.84899097843188       15.27912998271914        9.34133143098919
H            3.66051771806731       16.93336297258546        8.74271387585790
C            1.89039126272866       15.69548781877865        8.51197207668883
H            1.46925370703056       16.00629365899569        9.47602156706246
C            1.28790177109689       16.54678347148145        7.38858903452728
H            0.20085986641161       16.42301665592137        7.37050958557635
H            1.50392492828554       17.60498660315493        7.56548532799016
C            1.88519478681077       16.10958781461271        6.04577223664812
H            1.46100003828740       16.72060558298708        5.23963403502759
C            1.56501610898849       14.63180042678703        5.79214353108161
H            1.98337967748435       14.31880610086279        4.83018328246114
H            0.48140268700486       14.48583336669927        5.75228058024360
C            2.16514938005941       13.78634116788735        6.92060211021501
H            1.94752344030002       12.72574096419088        6.74425120427688
C            1.57139249700626       14.21744141203476        8.26532153561826
H            2.00389533518084       13.61065079259266        9.06651976502960
H            0.48888115241783       14.05985813045624        8.26707133710060
C            7.18190943218850       15.49576667819783        2.00186357839271
C            5.68283002466428       15.56928945478027        1.70501608299234
H            5.32594881943412       14.60327434488807        1.33932147382591
H            5.13800348321953       15.80094353626754        2.62556274565593
C            7.65332033738945       16.84804508068714        2.53422261517872
H            8.72106861260067       16.80237924199892        2.76810225974627
H            7.12250367377300       17.08694371134220        3.46088975878631
C            7.94865367891241       15.15468862843528        0.72239185107187
H            9.01885618059376       15.09428365487956        0.94348747825506
H            7.62839942990687       14.17770322600747        0.34889851033632
C            7.68824301449663       16.23856721302769       -0.33117861989125
H            8.23712815691219       15.98857978292103       -1.24727813295474
C            6.18693167566338       16.30578175132404       -0.63466817183985
H            5.99506275902272       17.06597366447890       -1.39791100051961
H            5.84232681902334       15.34267206928515       -1.02395319563892
C            5.42438398283549       16.65243282236405        0.64956613932478
H            4.34921643162081       16.69601364674858        0.43703303556191
C            5.89813538439417       18.00934599763970        1.18161901306260
H            5.34777388145876       18.26591783483039        2.09223460272302
H            5.70508527198821       18.78973982129962        0.43944586529817
C            7.39894390744914       17.93402814194518        1.48308066365471
H            7.74470529582340       18.89876705432960        1.87383820933283
C            8.16953464656763       17.59275618155581        0.20239304338204
H            9.24265942823069       17.54950655564756        0.41432207002797
H            8.00537168681156       18.37022694661855       -0.54973134265945
C           16.29090757664009       10.06780840961876        5.11108291305902
C           16.40225577212140       10.64335673906918        6.52124684099998
H           15.90670790161619       11.61779048687731        6.56384824139777
H           15.89704442765353        9.98324213773896        7.23312435610430
C           16.97194425505240        8.69796670063749        5.07261415854654
H           16.88011115442410        8.26933807510133        4.07059191687692
H           16.46853096914215        8.02369904324008        5.77246850530775
C           16.97946331225009       11.01235309779345        4.12087365223241
H           16.88252070213636       10.61402722764518        3.10696515244600
H           16.48636322204002       11.98891944696067        4.14633163006244
C           18.45941538208286       11.15901812792493        4.49670610946940
H           18.94823179745550       11.83293798777643        3.78236848862801
C           18.56702764546471       11.74306966950047        5.90938833702284
H           19.61835266754323       11.87124776171166        6.18451461231083
H           18.08777109398926       12.72669828863797        5.94159272066307
C           17.87920057988119       10.79698056526250        6.89882802808823
H           17.94950545753968       11.21615877455812        7.90983334396859
C           18.56017803770816        9.42503226966361        6.86467707057356
H           18.07701068876259        8.75253534569256        7.58059263493106
H           19.61187883202689        9.52140583853162        7.15114100212788
C           18.45061959298799        8.84599602571159        5.45017014451134
H           18.93147956679809        7.86012867950830        5.41865197881894
C           19.13985580924806        9.78543920755253        4.45354224825403
H           19.07453228362841        9.36896319646205        3.44348133300773
H           20.19928650050322        9.88656270071658        4.70852742587826
C            5.07834815594337       10.35794221403212        4.16935364312132
C            6.40165628601394       10.31786073699708        3.40788187871402
H            7.02838892197658       11.16410020134219        3.70626050027207
H            6.94496480031787        9.40011334385708        3.65433544229170
C            4.22028865871416        9.16063355637959        3.75391911099161
H            3.27722890113034        9.17441384018469        4.30787035436337
H            4.74264960849958        8.23286546168271        4.00536283022872
C            4.33722896748710       11.65205000719741        3.82685759300880
H            3.39720815481514       11.69769957010598        4.38437769133329
H            4.94760091210495       12.50920196217082        4.12613523372027
C            4.06791313966406       11.70985039066406        2.31854241668508
H            3.53745102643204       12.64137978448854        2.08423738533602
C            5.40056543015916       11.67323679939063        1.56323434591790
H            5.22554556954435       11.73768419304911        0.48506054306448
H            6.02121334513773       12.52510470276733        1.85961303007984
C            6.13383067424673       10.37428070981650        1.90265295093097
H            7.09191979650412       10.34541494258714        1.37083391499342
C            5.28476973592640        9.17041803489512        1.49010880727208
H            5.82348826428912        8.24891313902840        1.73389647384464
H            5.10723389666863        9.18577787293004        0.41054225107632
C            3.95234390734888        9.21387801020730        2.24539359048461
H            3.33855835595609        8.35060588465311        1.95917703207575
C            3.20717992342140       10.51013313789918        1.90546023739831
H            2.24909269310025       10.53883836505674        2.43389912525275
H            3.00174740185765       10.55124594821812        0.83140233551340
C           12.73137939805147        4.94600637333456        3.24997308848889
C           13.06240823176058        6.39335056144242        2.89933718471505
H           12.19310947438191        6.86695659762415        2.43568624921279
H           13.30075893933502        6.95401262176979        3.80781922113558
C           13.94475678194810        4.29321614249431        3.91513783012009
H           13.70533187936143        3.26325491688634        4.19424724921021
H           14.18861858931822        4.84120735265112        4.82985390049827
C           12.36879223314728        4.18392137004104        1.97354130108851
H           12.10738189040275        3.15126044569466        2.22137935140950
H           11.49556099151865        4.64810138754436        1.50420214693008
C           13.56398329562956        4.21292079601983        1.01055288039202
H           13.30212187384732        3.66427814888499        0.09747100232308
C           13.90181642954676        5.66537057557770        0.65688366782523
H           14.74504363117957        5.69454517217271       -0.03979718805536
H           13.04412003011027        6.13538309147007        0.16577742649476
C           14.25541979294096        6.42917413698868        1.93802835410069
H           14.48681423272971        7.47336802510928        1.69385533283943
C           15.47069003995899        5.77744203210221        2.60578308365207
H           15.72994608862864        6.32371864982651        3.51812231475353
H           16.33297918156399        5.81594179941867        1.93342354794057
C           15.13620806744469        4.32247957044768        2.95121131603519
H           16.00142054028045        3.85061703079948        3.43290161322600
C           14.77746798705909        3.55263567115815        1.67527147091593