198
 energy: -260.411110902113 gnorm: 0.000388721650 xtb: 6.5.1 (579679a)
Au           8.27423511069034       18.07016761134390        6.66870009531375
Au           8.37210736142024       18.10419571883119        4.06132395962174
Au           7.86163049763746       20.30896824704238        5.36269881820769
C            4.51743244236252       19.07324807118557        6.23291210226188
H            4.85619865336950       18.61315568892122        7.16007668595295
H            5.23596214546523       18.83645095878748        5.44873108686840
H            3.55463059119008       18.63909815305599        5.96308993618293
C            4.41562829955661       20.59250868802824        6.41338438654474
H            5.35003578782495       20.94115583122436        6.86973020948946
C            3.25440438613786       20.95801015324800        7.34454794718635
H            2.30039325093554       20.66791438803719        6.90406160328094
H            3.24341097904546       22.03304921457211        7.52491253678924
H            3.36584002302272       20.44230076369603        8.29741048630718
C            4.24229749915342       21.28117602160103        5.07956475794109
C            5.08288061018289       22.31590931520340        4.66992517951400
C            4.94173652743588       22.93468038193162        3.42330907617615
C            3.90729204281651       22.51116524237061        2.59251904452717
H            3.77364510242788       22.97225913538067        1.62093401930035
C            3.03450016976373       21.51461978316773        2.99972958700730
H            2.22075103693757       21.21059313087715        2.35178409737839
C            3.20632088304711       20.89852182393459        4.22899623897429
H            2.52292404675358       20.11441781416133        4.53314421373717
C            5.88658135349533       24.02256234710632        2.95684565336323
H            6.61237557082723       24.23429488412885        3.75065022854686
C            6.66997417263882       23.54399515225082        1.72851824915840
H            7.20405250874486       22.62535826578725        1.97105405427481
H            7.39458450761776       24.30153420948222        1.42989341483634
H            6.00408478480581       23.34817750032116        0.88811728965513
C            5.12797262390433       25.32084347258982        2.65878798205158
H            4.42755073392763       25.18628750046769        1.83475033129571
H            5.83335680081708       26.10684724379053        2.38926395178131
H            4.57120624338404       25.63804594956517        3.54083571108883
C            7.34023507930323       22.32633485351419        5.68369582392239
C            7.16104861062240       24.29108946865487        6.76025536692800
H            7.50451366244081       25.13459693487821        7.33214402366628
C            5.96148172404406       24.02574014496599        6.19497271090197
H            5.03651559664487       24.57501881912943        6.19235236028288
C            9.38639557260016       23.24969494273358        6.72506440225744
C            9.81973366445674       23.28154793102208        8.05468947758342
C           11.18398318716690       23.41938615428061        8.30305923360325
H           11.54140692602648       23.47812699914939        9.32430354376831
C           12.09179733098860       23.49876531418558        7.25985837886251
H           13.14921121687163       23.60968970548453        7.46908730096434
C           11.64734707458033       23.43543213026159        5.94978690797131
H           12.36656933235329       23.49390919138679        5.14119997046186
C           10.28960035520277       23.31852896910097        5.65732941465575
C            9.85007013558788       23.29224486941291        4.20974431592760
H            8.75928973430646       23.19350969577751        4.16581477281539
C           10.45315117970236       22.08044048530775        3.49303345513922
H           11.54226549053278       22.12187691200270        3.48731282932365
H           10.10299176010640       22.04857043606153        2.46215904013118
H           10.14503661798100       21.16080938926246        3.99152699758256
C           10.23079586745191       24.59797280689750        3.50235065407393
H            9.79233791973620       25.44696091275394        4.02699482126071
H            9.85314027278708       24.58604138443195        2.47974986591522
H           11.31247200042321       24.72779587255280        3.47083506844756
C            8.86062239933300       23.16689526210818        9.22058588512506
H            7.85095621722314       22.98217051748502        8.83400598919087
C            9.24411381469557       21.98550622718713       10.12056927602787
H            9.18971545957190       21.05344977915998        9.55738876479735
H            8.55963090996443       21.92454109534686       10.96598113387132
H           10.25398696326384       22.09906612270007       10.51317740301661
C            8.83468828905028       24.46985915978764       10.03007789286491
H            9.80795314229317       24.66535511329745       10.48009513915327
H            8.09155985506077       24.39832117646372       10.82426910042436
H            8.57700981995197       25.31065045096914        9.38592672954757
C           11.48087640510860       19.89708612826161        6.78375696590844
H           11.02283925528811       20.88453134995952        6.80511837097451
H           10.96373094886106       19.29491014526140        6.03758045384091
H           12.52258354534827       20.00525710479846        6.48156180882526
C           12.26189118422787       19.94883736161316        9.18453157171758
H           13.31247582905234       19.83314680079148        8.91760574455361
H           12.10520839141413       19.52696685547344       10.17745080436282
H           12.02750133660302       21.01238467874642        9.21299999216213
C           11.36237913105084       19.24185834806944        8.16421554580349
H           10.32085228142237       19.33869570239938        8.49430809048083
C           11.71393722206973       17.77350011702320        8.09765836607828
C           12.92890303668416       17.36977770776952        7.54732729710032
H           13.62360877540213       18.11280279571720        7.17361684285179
C           13.26391667528706       16.02675808980385        7.47983529472975
H           14.21418295343922       15.72816013414191        7.05277292873947
C           12.38707266234198       15.06440786118921        7.95507029164741
H           12.65789694485953       14.01718273416260        7.88828682746750
C           11.17341414244805       15.43029473999151        8.53208769010985
C           10.86091300600033       16.79159028671109        8.60103529078597
C           10.23841158669374       14.36635712947342        9.06836195834904
H            9.33243246063415       14.84716227019495        9.45578178403340
C           10.89633966176789       13.60434232799326       10.22510492327251
H           11.78580815218114       13.07303526090351        9.88679239441405
H           10.19439167056436       12.87994123789318       10.63795709641589
H           11.18528313075353       14.29997119828919       11.01333799669279
C            9.81231754774156       13.40899704074162        7.94956415141614
H            9.35211294942396       13.97358368360809        7.13890608046165
H            9.08562784947488       12.69195818123391        8.33159761223930
H           10.66570201181045       12.86046170872686        7.55123422935515
C            8.46220290602227       17.38301626442368        8.66198813154637
C            9.52140257237299       17.14000778577929       10.63014724728401
H           10.36334601567710       16.97045984193371       11.27793651777285
C            8.21401553308003       17.36146117575740       10.89649902314433
H            7.67624239491428       17.39947897466982       11.82706271228055
C            6.16668208215818       17.59764306771704        9.55885065199504
C            5.48256948634415       16.53699266566627        8.95319197799161
C            4.08992178479785       16.58311650430515        8.92346007557870
H            3.53623568674213       15.77425069749636        8.46117080667918
C            3.39969229215181       17.63688356604218        9.49881935200906
H            2.31617573042971       17.64641727494903        9.48675653045488
C            4.09443783164147       18.67790898448391       10.09265675940933
H            3.54414434841651       19.48975617934924       10.55335368730141
C            5.48770447574716       18.68409293482966       10.11955431368748
C            6.19321785759313       15.33820842479614        8.36398022308646
H            7.27591783535746       15.47100853975953        8.47256625919811
C            5.80208893808796       14.05765057446134        9.11106867923272
H            6.02179845811321       14.16502704004641       10.17336341175998
H            6.37199704190717       13.21471157170740        8.71979793151711
H            4.74000610548364       13.84265363903605        8.99432219928293
C            5.89082954122350       15.21789001942818        6.86769892428890
H            4.82350359288426       15.09366306526159        6.68567269367595
H            6.41462487664554       14.35650917779948        6.45433220699540
H            6.22885279271659       16.11358807999004        6.34530146625515
C            6.21429126100016       19.85483419261448       10.74712124491588
H            7.29354094135689       19.72375949357648       10.60141874323347
C            5.93664029770632       19.91789833659577       12.25466119524732
H            4.88020208500471       20.10583910151540       12.44600879027051
H            6.52058758509510       20.72001584770264       12.70604415755602
H            6.21156523446333       18.97621435808023       12.72993937034202
C            5.80406072838485       21.16968039522238       10.07231399579589
H            6.08225764461627       21.15151487407253        9.01824116465321
H            6.30785478559787       22.00732644414348       10.55324776153522
H            4.73001768233932       21.33526080423241       10.14840945696272
C            4.51077828510272       17.79776070379640        0.24970801573948
H            3.49752902352808       17.76598741417708        0.65021091206134
H            4.67761072254485       16.90212204981882       -0.34875412580024
H            4.60213988165760       18.67184408146228       -0.39511994578120
C            5.54583108560971       17.87552870012673        1.37870887283490
H            6.53845490198131       17.95591877672997        0.91978064330615
C            5.32144645563910       19.12322129844418        2.23545894006498
H            5.37772438574799       20.02031240059067        1.61827662387243
H            6.08660841684027       19.18730617210722        3.00950868049929
H            4.34535244429937       19.09315673173923        2.71813889330226
C            5.49623541615850       16.62163581191629        2.22586430226257
C            4.33465623734690       16.26709664562802        2.90914864726267
H            3.46231344493251       16.90870799220371        2.86211634991685
C            4.28294331474654       15.09589232617318        3.64700122007352
H            3.37333939423885       14.83152711335526        4.17408809923392
C            5.38246716314775       14.25133457257381        3.71070945037932
H            5.31152072055621       13.33570202655949        4.28457596759440
C            6.56356053855038       14.57391635948558        3.04923847783541
C            6.59539785520768       15.76840447142628        2.32519298678034
C            7.80182437094257       13.70303378515197        3.12739080680350
H            8.36098619544173       13.81990494000398        2.18999974166567
C            7.48112491054717       12.21576693273708        3.29500123901881
H            7.06758100634488       12.00644809025265        4.28173633389655
H            8.39525901576231       11.63318041617080        3.17952958220636
H            6.76623889335356       11.89411279885852        2.53777387498238
C            8.70183783245552       14.19197597675418        4.27003522687790
H            8.94012852006211       15.24701848665145        4.13768964395544
H            9.63077232508538       13.62209570778044        4.28817515199511
H            8.19658925532478       14.07106552118287        5.22791511407598
C            8.63192575629037       17.09176583467796        2.19090085464576
C            8.28449516900170       15.65775196720278        0.49713552697214
H            7.75435613343694       14.90840041413714       -0.06376700734037
C            9.44604628096389       16.31133196976309        0.24848323562281
H           10.14788266917672       16.23591797639246       -0.56325537401996
C           10.70614449362536       18.11078469830909        1.41836429351269
C           10.63006005286860       19.30814101327564        0.70409867047557
C           11.65379265081816       20.23563560385938        0.88174802270687
H           11.62847904416245       21.17800498076515        0.34731791250346
C           12.70851299025982       19.96765582765563        1.74190526575808
H           13.49458049770401       20.70238591397014        1.87325598532282
C           12.76995186460639       18.76434915891073        2.42696635464882
H           13.60610237738833       18.56767754540123        3.08802331566010
C           11.76853354766218       17.80877623993743        2.27048570446834
C           11.84370324420209       16.47771707532428        2.98693356422411
H           10.98400901460396       15.86660303393361        2.68702027735066
C           11.77613885509846       16.67533096008992        4.50316791734812
H           12.61760709988664       17.27077443474672        4.85625985153149
H           11.79329510373433       15.71045183633176        5.01025750977225
H           10.85289281538868       17.19012089383240        4.77075223856260
C           13.11805903692770       15.72218502607543        2.59164161724364
H           13.15789628631815       15.59795690965614        1.50945066986653
H           13.12154568423485       14.73674090795557        3.05752090964271
H           14.00889285899530       16.26122367046310        2.91394465543366
C            9.46179130412330       19.59869909664454       -0.21536364950311
H            8.86882486083965       18.68341282073715       -0.33212587671902
C            8.55122219562688       20.66484305337883        0.40611607083692
H            8.24027072556465       20.35280882911395        1.40366874820830
H            7.66274618815386       20.80244133064141       -0.21022576136343
H            9.07259979522904       21.61905584437807        0.48270327162140
C            9.93609220390631       20.02784628197030       -1.60790749357826
H           10.45535339536684       20.98539262584660       -1.57104933282911
H            9.07844415944016       20.12704127711856       -2.27326710568670
H           10.61318680256832       19.27931223691846       -2.01949914896202
N            6.09370658522139       22.81621349115667        5.55091568474923
N            7.98656371286410       23.23433021378403        6.44331374520325
N            9.64820607435695       17.16748503206282        9.26019969878431
N            7.58696614237578       17.51815120227639        9.67978677474025
N            7.81238843620964       16.15453469687030        1.68857241671383
N            9.63346177292167       17.17686500287572        1.30045620642719
