400
 energy: -695.204696548689 gnorm: 0.000122275877 xtb: 6.5.1 (579679a)
Au           8.23459243009641        5.50048456239169        8.83481464993241
Au           5.49815196069738        4.68623920999117        8.57651517383034
Au          10.22650212197224        5.01564744431531        6.53165191667442
Au           6.70704764804764        8.21170841429239        9.53066786220823
Au           7.18383174113389        3.46261687382693       10.93417161359504
Au           9.46142277983485        7.86101957475109        6.91570503954009
Au           7.26579000782376        4.03023636586655        6.49451464892614
Au           9.41863634028726        2.60341297514897        8.08318495071893
Au           6.57195973395633        6.71412155199963        6.92149032827853
Au           8.68597804202121        6.36315710033745        4.62967613622115
Au           6.01826897076775        6.05413644179338       11.31016482514332
Au           6.79751630441607        1.82567335767918        8.77373884244832
Au           4.06811504918347        7.30860446471948        9.77161944588415
Au           8.93204002134012        1.34410898959630       10.63926985011983
Au           8.97245546783984        6.79635769313453       11.26898951454436
Au          10.90204490269958        6.52447781773627        9.25101377045681
Au           9.13960151403786        3.50737382892757        3.66179300769319
Au           4.34919697151275        8.92954889938988        7.13146203786545
Au           4.34425728670301        1.56149848441844       10.37158404764916
Au           9.23476956139090        9.27161580569601        9.32482463884727
Au          12.03178436829022        3.72606495579258        8.21114023536511
Au          11.06633983634334        2.49686794867538        5.76408858379479
Au          10.04701078151386        4.23885504879806       10.62201033367903
Au           8.75146739429387        0.16420665950520        6.35912227689856
Au          12.56241536339493        4.47842828223761        4.06899241741107
Au          11.48020838200637        7.03999760593028        5.11960162568997
Au           5.51778920496537       11.15671360971099        9.70232387990587
Au           7.25881192182971        9.70939532693601        7.28918112243253
Au           9.73421810184437        2.62737522289164       13.24750566687656
Au           6.53308266145369        0.87466580511567       12.63003898302314
Au           8.08176520483881       10.27415769133681       11.80522555563381
Au           5.41118585903179        8.79898670412086       11.87473938426036
Au           2.28427041068098        5.27395043352728       11.17051181671175
Au           4.94803348796392        3.68151984476224       12.49413753973727
Au          13.66141423266140        5.92765124032465        6.90353738620443
Au           7.45952063783583        4.83558549744389       13.36259631855164
Au           7.16416529565329        8.67737135326898        3.74774057868901
Au          11.79907157556616        9.82620466136136        7.04502147657001
Au          12.53454850003030        1.50724537174173       10.10095704793642
Au           6.89253161276059        7.34639311170486       14.81951749890468
S            4.97810703139900        7.71742644003842        5.21194825632336
S            7.69191152401841        2.07801115860920       14.30736499769391
S            6.46917044560190        0.09025797204135        7.02507989163603
S            7.35182179746123       10.68005587123187        5.02024822598648
S            7.49604979369655        2.25219581342699        4.78012233534266
S            7.17927871246794        6.58705393154897        2.62825578948428
S            3.45665870238025        3.48062215051384        9.32369704663258
S            8.86087374578519        8.47421690185543       13.11546738777649
S           10.80416615321029        4.72868642703321        2.52231172201111
S           11.38190639138922       10.53083227153361        9.27869270281257
S           11.75658363988465        3.20528832796151       12.20248288006198
S           12.69002797584811        9.18524192728467        4.93829712594824
S            2.56768419595428        3.74136798514292       12.98566733426696
S            8.56740036577114        5.77299991584218       15.38660044052902
S           12.93937380883762        7.61060269533776        8.38731868391899
S            5.06780799894609       -0.46653055589409       11.33960699364562
S            1.76239029123488        6.57652422484837        9.24866498859819
S           10.98770589139512        0.04588216301110        5.52541562993326
S            7.50448626622526       12.15003877768394       10.48852871848555
S           14.11044466226941        3.17611324832875        9.47961111478676
S            5.08927838230579        8.83235009663951       14.29931063545769
S            3.50306893642900       10.19115166700122        8.95415713576978
S           14.55905488244515        4.42186567799684        5.32172826589966
S           10.89349114332230       -0.15316729022622       10.57901126094524
C            2.65909986999925        2.76717407245673        7.92793454722112
C            1.34209050277497        2.31261851558509        8.05641578747153
C            0.71895973794194        1.74859707847814        6.94707222468763
H           -0.30298404036272        1.39672842318616        7.03720319080659
C            1.38441586418244        1.62446288571843        5.73643390358543
H            0.88373538008250        1.17780631716171        4.88545796169950
C            2.69241866875633        2.07152201944196        5.62054493318672
H            3.22157719613503        1.97795872355295        4.68109715005954
C            3.32336854361742        2.64253866607355        6.71339060902854
H            4.34341639625243        2.99562440978702        6.62349176017930
C            6.07088773163388        2.36054387669931        3.74750770430210
C            5.54303146974775        1.19434044597645        3.18556066459915
C            4.42586839027187        1.29220944312917        2.36040588049197
H            4.01269642633904        0.39023560882302        1.92224703693269
C            3.84192217892927        2.52026554004060        2.08786997025674
H            2.97718355561934        2.57912839246460        1.43747493101984
C            4.37010211843403        3.67103372271547        2.65473564188497
H            3.92059245502478        4.63403181486564        2.45225621207226
C            5.47507261311970        3.58882749621602        3.48641471420074
H            5.88510851306358        4.48987009778474        3.92611856510950
C            8.30205997530902        6.61267229184276        1.28463807701975
C            8.20932555779850        5.57452575428750        0.34895891806769
C            9.08451135819899        5.55714825796357       -0.73092246329655
H            9.01805570414493        4.75247139015132       -1.45541346916749
C           10.04283786426315        6.54832521015003       -0.88860391362399
H           10.71973703082344        6.51864795775801       -1.73449423625254
C           10.13092984061381        7.57329489871146        0.04327183374809
H           10.87229776581025        8.35522432437665       -0.07112326003826
C            9.26342453530740        7.60351840874348        1.12351233071251
H            9.33415017366915        8.40214861070207        1.85273879541533
C           11.31808383756602        3.83444149568398        1.10386732004741
C           12.37910913705566        4.32944040026669        0.33725535672745
C           12.73966505098908        3.64990262118813       -0.82156464102150
H           13.56220774454172        4.02592507425793       -1.42030055218297
C           12.05890540632194        2.51089311432892       -1.22680723534222
H           12.35173655845463        1.99949819396522       -2.13620725805859
C           10.99993013193584        2.03506939616104       -0.46731124011295
H           10.45315270919546        1.15255194337176       -0.77721815424136
C           10.63876747857969        2.69325985703537        0.69703694932052
H            9.81620087813611        2.32135720342963        1.29677214605375
C           15.52402033996099        5.38548740095197        4.21117152597579
C           16.09819575918040        4.73876198171253        3.11030234428847
C           16.86590544147681        5.48221359346615        2.21965554009167
H           17.30964060970122        4.98719015025368        1.36261588704530
C           17.07006871889311        6.84104035272757        2.41128398584578
H           17.66799548617949        7.40420962801671        1.70441738334007
C           16.50891388388597        7.47266736551633        3.51195123363439
H           16.66734778853405        8.53165009417127        3.67828133308453
C           15.73918483555997        6.74455761182747        4.40447711329560
H           15.29421418949409        7.24011855207319        5.25925559136473
C            6.14469000032018       -1.32844311052333        8.00042305010109
C            4.80778817211753       -1.71486518579485        8.15670072358762
C            4.51559778828477       -2.83950451359358        8.91996258820356
H            3.48130276170849       -3.13942910002957        9.04987543758079
C            5.52755518876104       -3.58050345846018        9.51438941543608
H            5.28332397466013       -4.45783985063138       10.10197705753732
C            6.85106636442805       -3.19776794315018        9.34644061386002
H            7.64772292308843       -3.77830326629127        9.79636355959946
C            7.15578649648047       -2.07229195193976        8.59713673948633
H            8.18771142925340       -1.76514019660698        8.46983869537915
C           10.84279710262811       -0.36094929345057        3.83239060178153
C           11.88511003444322       -0.05986007047896        2.94585158796637
C           11.76318531686313       -0.43050819789059        1.61065670455633
H           12.56642302302007       -0.19321574015164        0.92118681885618
C           10.63883334954115       -1.10065487039773        1.15001416636948
H           10.56483798123691       -1.38294766302521        0.10630179046643
C            9.62154725788517       -1.42298940281007        2.03728169584276
H            8.74674865083922       -1.96436127967264        1.69639502814080
C            9.73076927050640       -1.05791859121421        3.36863687091287
H            8.95366788587199       -1.33148319166209        4.07189959802793
C           10.50702554315817        8.99247532688175       13.46765482619365
C           10.75175683012872        9.75069618776336       14.61792196521855
C           12.05436127795371       10.15918055761827       14.88859163644442
H           12.24949064229442       10.74493368794066       15.78028500589241
C           13.09941688337334        9.83518117049112       14.03613884964429
H           14.10636545552943       10.16669252311531       14.26063274699731
C           12.84855652052673        9.08691856955394       12.89536255485170
H           13.65430268732978        8.82801500799203       12.22078208957224
C           11.55829742085015        8.66676798108225       12.61892162088395
H           11.36472403299930        8.08005973717433       11.72980712905722
C            7.10237851654732       13.44402689555801       11.60194649032280
C            6.44536211001893       14.58601967792854       11.13030288999505
C            6.20232029742179       15.63292621465170       12.01368516534625
H            5.68742053722207       16.51751918381931       11.65468862626949
C            6.61897773430512       15.56983909406503       13.33522019679577
H            6.42571285339986       16.39916333680709       14.00536679234846
C            7.29232280748922       14.44505989074522       13.78920882132031
H            7.63695764274213       14.38570618184691       14.81458747894408
C            7.52306332810414       13.38759757041848       12.92550271508574
H            8.04507602707347       12.50644515943250       13.28022966506546
C           10.78931877505034       12.17908267985336        9.29109721847686
C           10.82555788922909       12.87465915580942       10.50632230491976
C           10.36064479012706       14.18412551872997       10.55034357602019
H           10.37919633803292       14.72283881324573       11.49175493301758
C            9.87522179050705       14.80740762735281        9.40936629299543
H            9.52038123621449       15.83023528032280        9.45956312267397
C            9.85402723480248       14.11748768070492        8.20510925279708
H            9.49143449830658       14.60090937088550        7.30569395428010
C           10.30308105391045       12.80744053026675        8.15025372937329
H           10.27865902513713       12.26327266805269        7.21299896506039
C            3.54885385031849        6.73129961688796        4.91832025378734
C            2.98676095507158        6.71501426750945        3.63786778068564
C            1.81890465669293        5.98437481390438        3.43064068451291
H            1.37599186256035        5.96829343301283        2.44060758477605
C            1.20770277011413        5.29440619087385        4.46726261893672
H            0.29248073499493        4.74266242397479        4.28755091128802
C            1.77295447313499        5.31698796480778        5.73381213678193
H            1.30355820377254        4.79533353892861        6.55888624835861
C            2.94539633820647        6.02204407435032        5.94924256236113
H            3.38771326904841        6.03500482994958        6.93731922526929
C           11.79228643546479        9.97107783018589        3.65657694995319
C           12.31618014861338        9.89047052985678        2.36066805850474
C           11.64337660964068       10.52192441532495        1.32040235966765
H           12.05500653351580       10.47838546717561        0.31767793977484
C           10.46018798073750       11.21155527817375        1.54981530811255
H            9.94552792158674       11.69344775206275        0.72692570186708
C            9.94282543985272       11.28054611773797        2.83536658672130
H            9.01922415136262       11.81196056935321        3.03284208347201
C           10.60847730716716       10.66283260898341        3.88201456927721
H           10.19865095518069       10.71494906254695        4.88411244508267
C            7.95506038385242        4.70859875228287       16.63454817304186
C            8.89151033289251        3.94045688838723       17.33643386268519
C            8.44941946376967        3.09604393391526       18.34851278824609
H            9.17144772132755        2.50005211822236       18.89647341862775
C            7.09995315744049        2.99747539738121       18.65734415755486
H            6.77188163792108        2.32890373834474       19.44473060878977
C            6.17479228671974        3.75223038847393       17.94927126372381
H            5.11771161160022        3.68302105283336       18.17931053084851
C            6.60355193916376        4.60412736769840       16.94393650330466
H            5.88172175272562        5.19522501695224       16.39225413277541
C            2.38962473660265       11.38707862347860        8.30705197146223
C            1.87636665436188       12.38373143519319        9.14293521907392
C            0.93283126377624       13.26876049089072        8.63114574155564
H            0.53367952443890       14.04485606099405        9.27516254752745
C            0.48482656819995       13.16352656035210        7.32261872683610
H           -0.25870501108749       13.85614392863102        6.94629530934508
C            0.98926355276600       12.16432883541186        6.50316286112950
H            0.64196456517790       12.06198857190859        5.48198144203874
C            1.94387299785794       11.28894609885720        6.99519180185373
H            2.34448816477726       10.51392645912417        6.35274251016877
C            0.88776919632242        8.01788274399889        9.72151969510382
C            0.19310378695044        8.70476196410846        8.71886078060815
C           -0.51221774999555        9.85499713010381        9.05336132116651
H           -1.05298072632755       10.39072423259607        8.28040267244268
C           -0.52283056607703       10.33194792071333       10.35671542056447
H           -1.07238982961331       11.23425813656546       10.59861252894931
C            0.17760423536338        9.65293351297122       11.34488820362380
H            0.17742208833678       10.01703001341971       12.36588014763756
C            0.87629003124981        8.49934340978932       11.02579195172526
H            1.42419740101609        7.96693402530707       11.79465852779333
C            5.44297672230514       10.37051823460387       15.04463091423383
C            4.77993183298716       11.53192624566036       14.62882626171031
C            5.02117321522308       12.72581813176742       15.30024546416921
H            4.50954733587793       13.62634431751274       14.97753386787933
C            5.89572931985644       12.78203511867071       16.37615660097757
H            6.06220824246609       13.72025476373530       16.89230441942323
C            6.54243117877671       11.62716776431609       16.79331407560767
H            7.22051547857498       11.65217387549107       17.63842000790508
C            6.31225451185370       10.43312527189278       16.13049947129244
H            6.79585785649133        9.52475517785014       16.46888303436412
C           14.18448258264142        7.63163598359867        9.63174735497508
C           15.10284112192756        8.68572081658169        9.65944270775479
C           16.08853994805004        8.68714658443768       10.64252541037066
H           16.80258550947172        9.50293701407685       10.67327181488842
C           16.17404748250638        7.66296676382968       11.57336087664530
H           16.95213215615719        7.67793713913866       12.32748942423542
C           15.25980894446677        6.62034013710982       11.53398380612917
H           15.31860669357744        5.81703322865385       12.25643779957211
C           14.26504722165755        6.60851780814757       10.56934285511203
H           13.55135424070459        5.79394415048759       10.53775718462041
C           12.46464421363526        4.38375232761255       13.30202965847822
C           13.80532672223498        4.24146976315513       13.67266942126087
C           14.34302767767108        5.14121919834126       14.59021715887727
H           15.38069805497016        5.03460545735540       14.88768671419336
C           13.57240592456299        6.15602811308752       15.13882527405774
H           14.00716366607138        6.83920975970464       15.85899859169887
C           12.24414206755942        6.29014817389253       14.76191931373969
H           11.62511265189028        7.07094717703160       15.18683897041180
C           11.70080182976395        5.41298460948653       13.83788493943063
H           10.66465267441129        5.52047206558755       13.54248592189644
C           15.15125078736126        2.56733367233729        8.20738281615966
C           16.35290171260294        3.24915111763294        7.98084755570791
C           17.20375435237662        2.80178634949127        6.97648121134898
H           18.13532545380576        3.32734581521154        6.79587923333976
C           16.87521672932551        1.69723851476714        6.20211705714376
H           17.55397168060970        1.35608794184303        5.42908505766502
C           15.68039345943079        1.02798015279183        6.42986335090179
H           15.41447484148744        0.16361365856867        5.83229599358878
C           14.82386471579134        1.46387375262609        7.42790897404931
H           13.88936393859754        0.94442678540227        7.60500597832400
C           11.08087141028276       -0.68515365768030       12.23449186986373
C           10.17084205348331       -1.62378881239124       12.73905636644474
C           10.31708966185729       -2.07438252783733       14.04551300449826
H            9.61147324613617       -2.79826560495861       14.43929794416690
C           11.35470782103388       -1.61884861181354       14.84710473402990
H           11.45960925234633       -1.98988300667562       15.85982932155535
C           12.25921969464618       -0.69572270568271       14.34164593780939
H           13.07655778131121       -0.33525021897240       14.95539614333126
C           12.11905389611618       -0.23449114625292       13.04250010272118
H           12.82705342587817        0.48056839228837       12.64294434822511
C            3.91732415867157       -0.84216127063381       12.61366106237358
C            4.24681999515655       -1.85061301081099       13.52739514067400
C            3.34041507681342       -2.16681572694115       14.53416612336938
H            3.59293652723410       -2.94266777538005       15.24884383106397
C            2.12367011157119       -1.50791896053564       14.63572507505961
H            1.43156277148729       -1.76692641474298       15.42833770833174
C            1.79667665602446       -0.52100520400760       13.71669868667810
H            0.84511470752575       -0.00628391442790       13.77786965780231
C            2.69340371831533       -0.19143503412039       12.71331272787042
H            2.44148127422643        0.58417546595973       11.99928299518757
C            7.94785321118001        1.01691521632194       15.68252103075061
C            6.84168376258331        0.56554083144153       16.40951465778544
C            7.05884464043923       -0.23615181311931       17.52564914038359
H            6.20645584406121       -0.59312061083905       18.09345351902386
C            8.34324362474411       -0.57192044264967       17.92830612217258
H            8.49154957781870       -1.19032741504506       18.80572768728302
C            9.43431709621117       -0.10736666640655       17.20810624575775
H           10.44254427674705       -0.35381742040009       17.51891437572597
C            9.23302030507959        0.67679273831011       16.08347937870069
H           10.08192014809416        1.03328621115250       15.51186523583719
C            2.67038080485055        4.61332952142988       14.50513907495599
C            2.50872394167625        3.87582901676905       15.68359386915863
C            2.62675388324757        4.52463718682481       16.90772724475934
H            2.50362426876478        3.95695556603008       17.82395237241228
C            2.89486858052049        5.88529020459971       16.97033010062603
H            2.98849798340316        6.37586659553854       17.93206525669862
C            3.03653984025424        6.61312140860246       15.79759016642723
H            3.24209798918263        7.67673404770768       15.82910244921264
C            2.93074411147271        5.97672098224071       14.57129256565453
H            3.05981503554654        6.54235418477863       13.65555195199603
C            5.87485503620890       11.60920329957274        4.90603074137744
C            4.78863336267906       11.18715380989309        4.14833500941968
H            4.84961961464586       10.24761503010995        3.61350121172276
C            3.64052884565585       11.95929790023348        4.06789040509039
H            2.80395591870749       11.61871620698084        3.46875999019171
C            3.56864835320774       13.16346321548814        4.75434616618225
H            2.67300107340437       13.77105140469377        4.70039691683958
C            4.65216804073819       13.59164938378416        5.50850373970658
H            4.59858718063239       14.53592280521766        6.03997060529123
C            5.81293464298645       12.83163392870250        5.58636592811974
C            6.15669926647393       -0.14515960164574        3.46281167946927
H            5.67269549370030       -0.92743834706025        2.87918150927421
H            6.06018926043637       -0.38771807714409        4.52360907599952
H            7.21907890243026       -0.12619157677254        3.21870065687693
C           11.34950945489853       12.20769016160883       11.74473757455623
H           12.32338117685870       11.75449177213812       11.55275589896580
H           10.67396519010332       11.40407726049455       12.04858402487289
H           11.43675148972182       12.91468307207531       12.56907501999848
C           13.11160332884707        5.57685053080698        0.73907331603856
H           13.78032780804208        5.91081428384418       -0.05342691459324
H           13.70697490091439        5.39660311474380        1.63715190060769
H           12.40109173648677        6.37258887200016        0.96602233459575
C            0.60897268639761        2.41834171711702        9.36178417622521
H           -0.40224757023095        2.02258743718745        9.27487808686263
H            0.55100707852002        3.46035350450796        9.68117395563401
H            1.13737454619098        1.86372827615340       10.13977874587226
C            3.61758493994471        7.47133067136085        2.50402958884906
H            3.68604394710575        8.53243237494079        2.74888923908765
H            3.03583096891580        7.35909983406712        1.58967650108249
H            4.63103770466267        7.10703713706799        2.32177061665766
C            7.18478974405442        4.48996179904172        0.52003996862413
H            7.21230109409728        3.78557400427727       -0.31071913111806
H            6.18361569265769        4.91773544177307        0.59495735831159
H            7.37189754894946        3.94236058804753        1.44723453872128
C            0.22375722650299        8.20350971038324        7.30299370920400
H           -0.34949252747032        8.85298262841511        6.64213083243370
H           -0.18185687108906        7.19158073292232        7.24927902314182
H            1.25478856852540        8.15846386657004        6.94454038229286
C           13.12198986339426        0.64682286461654        3.41409167433384
H           13.90137711449337        0.61867805461873        2.65333488112623
H           13.49973312770066        0.19699222565507        4.33266966169453
H           12.89370522658197        1.69346390569658        3.63272231540677
C            9.63450476338538       10.12181071094548       15.54760194289563
H            8.86629433167413       10.68437568337337       15.01359816113406
H            9.99881017019740       10.72690235471532       16.37698272620698
H            9.16606949017082        9.22183280702006       15.94930433452778
C           15.03742743043658        9.80915835399849        8.66593203095353
H           14.13893493187521       10.40481668170543        8.83887845091748
H           14.99223924562435        9.42071663074123        7.64787286394297
H           15.90629662571108       10.46024142587928        8.75669813103978
C            2.19714061289158        2.40743153212125       15.61905999028992
H            2.20481092740315        1.95861584857831       16.61191807633262
H            2.92350400065296        1.89137383869629       14.98911886629056
H            1.21307628588122        2.25486094236049       15.17119535435586
C           16.70313756527447        4.45394730894711        8.80707875127713
H           17.68037018323234        4.85035184310299        8.53350400089299
H           16.70351742631442        4.20062436629548        9.86866175730490
H           15.95458903170124        5.23693968326508        8.66197013396484
C            3.70961850524234       -0.91660748159215        7.51525674812836
H            3.67073019894850        0.08412244240708        7.95255874561791
H            2.74017426108441       -1.39372416987479        7.65478595518758
H            3.89964215290202       -0.79404995328199        6.44762218255327
C           13.58788940900559        9.13189971817756        2.10795841517036
H           13.46975429261358        8.08977439099497        2.41283513978727
H           14.40277446210023        9.55239348132831        2.70017461061696
H           13.86272299834749        9.16200160398291        1.05406846608386
C           14.65356469410677        3.14185383403492       13.10098031861007
H           15.66066217163934        3.17075585757000       13.51571741811732
H           14.71871655653030        3.23876852448700       12.01470844432984
H           14.21061341924716        2.16911525697333       13.32043478040831
C           10.35031866844245        4.02783892486886       16.98826042327683
H           10.94845083839751        3.37785675351248       17.62613100507741
H           10.70589295902722        5.05477249492886       17.08978822475296
H           10.50367720938899        3.73429356520289       15.94668245902445
C            5.55850568913904       -2.57627805553780       13.43353811143800
H            5.74392521701467       -2.89524317457846       12.40686118652140
H            5.57100416083674       -3.44781453001935       14.08708269749881
H            6.37560671742954       -1.91293150510223       13.72693902348449
C            5.44428550968392        0.94249430549641       16.01317564748132
H            4.72783874519515        0.63848635020732       16.77533285406647
H            5.17236582145812        0.45756289886930       15.07268622265665
H            5.37219584230909        2.02072813342076       15.86529237498361
C            9.05846516542926       -2.14288922986240       11.87730755110747
H            8.55113070758038       -2.98217734507118       12.35157334267515
H            9.44882565302280       -2.45724455563903       10.90852146116280
H            8.32443745310869       -1.35466299768525       11.69113317142116
C            2.31086895730636       12.49381217223175       10.57412970542590
H            1.72521783772370       13.24277787024018       11.10577972942614
H            3.36463235667849       12.77562032897916       10.62853509229103