612
 energy: -887.051484236834 gnorm: 0.000711306215 xtb: 6.5.1 (579679a)
Au          12.08472676994251       21.57169913147031        4.64900597759946
Au          12.87102659373466       19.35321428891989        6.53076221457462
Au          11.46701613224110       21.57715868999680        7.74676954964369
Au           8.81758752165381       19.95232890801796        8.46886556760114
Au          10.71881579900923       17.76752800058307        8.20687890868909
Au          10.15793659512596       19.56688956829927        5.78020917383613
Au          12.19196292442007       18.81246655327635        3.78596260595162
Au          14.57610228187664       20.32840568695203        4.27143348325381
Au          14.18215856768467       21.86095031155971        6.73600674786554
Au          15.60424900059230       19.13364282289131        7.40174339911785
Au          14.45212860281178       17.32949388477017        5.42941044691387
Au          11.61769488014282       16.68769167701268        5.70748377482844
Au           8.86389570887125       17.10372594113137        4.91235628682866
Au           7.33883722218466       19.61144290787523        5.87445149728262
Au           8.77998024625633       22.17234471335138        6.57625469097960
Au           9.47326346306449       22.56995493818419        9.54852809920779
Au           8.38403284106729       20.57861295976756       11.25637857536992
Au          10.93944328133384       20.09844531242191       10.39552185207405
Au          13.49639401250273       20.07650968154752        9.17848355799431
Au          13.60746781191527       17.23721507195925        8.22445865688302
Au          10.95281132752775       14.99658833902840        9.41727061079498
Au           9.48001165258037       14.98349325315371        6.62527566392429
Au          10.29397929612054       14.88754534558634        3.96771719088241
Au          13.15832903484746       14.79443225227231        3.01083291754328
Au          12.26008880174487       20.81186051740521       12.84431008763300
Au           9.35577953664683       19.19516626991058       13.59318425670024
Au           9.14444830079731       17.57227522307806       10.46180131587294
Au           7.91932228333722       17.28230398606011        7.93000726987821
Au           6.16196475716915       15.43451763014402        6.18787814068720
Au           7.37153853386765       15.12220484717624        2.95299822318537
Au           6.28783662744341       17.63199489347060        4.10130162500269
Au           8.61355521964066       19.21518893815183        3.19015811771274
Au           9.84454932435883       16.86102341139109        1.53440080830495
Au           7.56199039137052       21.99047245433863        3.27601697491498
Au           6.55375981608253       24.09577646279668        6.63117219283468
Au           6.45400461312631       21.44962972583930        7.90552368382235
Au           6.71677164845065       23.49299414157500       10.08634874797254
Au           4.42694270358465       19.68231540398288        6.29781328743436
Au          12.82521146024667       24.25077910465989        8.24483843757603
Au          17.37524822683771       20.22853693538506        5.27426201723247
S           13.26149916402288       15.37384242300425        9.79279024410767
S            8.72085782415125       14.36949401166193        8.92270291009760
S           11.27347338177956       13.72445109620957        2.02921567123072
S           15.11328118503264       15.31626024214299        4.26234297725981
S           14.17374130158148       20.72784701515375       11.49767381583217
S           10.47578652605486       21.12332765604080       14.37638792392692
S            8.34135898242367       17.23427510061368       12.77823866503574
S            5.41508978251433       17.21975895088781        7.53594763290606
S            7.04910717271981       13.70053402509166        4.83411174005853
S           12.15070963457864       17.33559902242681        1.78586605814961
S            7.59686273030155       16.37250539539183        0.95854438829416
S            8.57435234117664       20.90865988013620        1.38624035627404
S            5.88441531148219       22.62415581107447        4.91726948934973
S            6.16396708331295       21.68558491345419       11.51189055954340
S            7.32763437997496       25.21176284886985        8.55647553749709
S            4.38320167917041       20.30919450127536        8.59561284188544
S            4.25138486660552       18.99232301190335        4.01792817897915
S           10.72506471353505       24.70677640147892        9.22322734618706
S           14.92479290052625       24.17904261992055        7.14733497412906
S            9.95213474897736       22.82461743193160        4.44547762406485
S           16.71320030319401       20.68588206013808        3.04090607634626
S           17.93663298224762       19.93798103018888        7.55726831270367
C           16.43224372101758       15.74809274378805        3.11017390197695
C           15.96945502045300       16.74471973291075        2.05403538251693
H           15.63458724018348       17.66265705306917        2.54673252409598
H           15.12042560308354       16.32855086782806        1.50411154427816
C           17.12597921224716       17.05282040574377        1.09569204497798
H           16.78486911877222       17.76439075655917        0.33370523038113
C           18.28920833483166       17.66505296295421        1.88161979309339
H           19.11752415515341       17.89686723319347        1.20510975175298
H           17.96636921740643       18.60112398114281        2.34922888098544
C           18.75077147864591       16.67042480613885        2.95144611242206
H           19.57793106912871       17.10565216380816        3.52594918866774
C           17.58810891682932       16.35826776022330        3.90104389297714
H           17.90888841910000       15.66251778440543        4.68141328270878
H           17.25004279196405       17.27710185626552        4.39182250387988
C           19.22040380960814       15.37463825013986        2.27996669557167
H           20.05987080429681       15.58564128639132        1.61052422369204
H           19.56456909849594       14.66493744012938        3.03899646390919
C           18.05834932503958       14.76703406250039        1.48525390197019
H           18.38929305290949       13.83813886214439        1.00467798009968
C           16.89585267883495       14.45464256306848        2.43614392642187
H           17.21017829136032       13.73536314478263        3.19787196225250
H           16.06305558903054       14.01331054585213        1.88061771057389
C           17.58622044130469       15.75866068567026        0.41554301053156
H           18.40255999232920       15.97392465832247       -0.28060951271731
H           16.76048873200946       15.32418111935674       -0.15673786300287
C           11.38452755824523       11.99877192887221        2.57211747167218
C           10.14455234649096       11.27461739616652        2.04291898004775
H            9.24575933568672       11.73557780123313        2.46182028959611
H           10.09871626862034       11.37261110062850        0.95492459516924
C           10.20822626777475        9.79161478738968        2.42994267038365
H            9.31545080419413        9.28187018972489        2.04668857856918
C           11.46385604553941        9.16088424039618        1.81652684617961
H           11.42451654732075        9.23950806496593        0.72558197884199
H           11.51265616425273        8.09894438056024        2.07627868522041
C           12.70651632818664        9.88546039841175        2.34776270922633
H           13.60660842844963        9.44016058490166        1.90657937171263
C           12.64040590825087       11.36991927125830        1.96569675692295
H           12.61961147971929       11.48105987213047        0.87793251182223
H           13.52580984711373       11.89288637041992        2.33925961403535
C           12.76497447919289        9.75550470968680        3.87376569974784
H           13.65414405708226       10.26515010894874        4.25837971683044
H           12.83123686062883        8.70098963978383        4.15836332460886
C           11.50480778971646       10.38186367761117        4.47918738788876
H           11.54659188336935       10.29930201253271        5.57234793432017
C           11.42871135516958       11.86126407836094        4.09166797583154
H           10.53068460444721       12.30896632913786        4.52800765663987
H           12.29288092994364       12.40182701051396        4.48464883173001
C           10.25866847378819        9.66000795625945        3.95607169794304
H           10.28838923811251        8.60397375678497        4.24109434584701
H            9.35967574668079       10.10277380178139        4.39816079160805
C            8.67790041426126       12.55500215679533        8.93063527847585
C            9.72737448784187       11.95950180716048        7.99552901509011
H            9.56183059085944       12.32323697073534        6.97660783292878
H           10.72489107210520       12.28354114203984        8.30461089913353
C            9.63701156581170       10.43060663840189        8.02404294984853
H           10.39811071342990       10.01280394061018        7.35376178059467
C            9.88641514166419        9.92993296454117        9.45044917943424
H           10.88540007909896       10.23246153505563        9.78070328164113
H            9.83901897714071        8.83709899155814        9.47619112738825
C            8.82552854547441       10.52359270687269       10.38321458254059
H            8.99902546022570       10.17415461526328       11.40847164189131
C            8.92029588272577       12.05409763259277       10.35284259494729
H            9.91163819629288       12.37313395364613       10.68644390415221
H            8.17557819051270       12.48771364849354       11.02536085362914
C            7.42942293234192       10.09039826102807        9.92166248898111
H            6.67047413759641       10.50306768304098       10.59369991732328
H            7.34865686029580        8.99951812774310        9.95084243177423
C            7.19034958983386       10.59391134655384        8.49365453905864
H            6.18943887140945       10.29090644497630        8.16237006167067
C            7.28596189906476       12.12514650180425        8.46950288112398
H            7.10928360764668       12.50099887645062        7.45862942500365
H            6.52705621004498       12.55643379248943        9.12767992473728
C            8.24454598228948        9.99796296890786        7.55399688245005
H            8.07342331399230       10.34772344611757        6.53047584201282
H            8.17098887783645        8.90624491271170        7.55256700094288
C           14.02327918899401       13.99501119647512        8.89734606923009
C           15.53651014294832       14.22183637074543        8.89585138076326
H           15.89494240547202       14.32049752080256        9.92385512422407
H           15.76441246155865       15.15223886537223        8.36707720142632
C           16.23720086350847       13.04253618456148        8.21101060737410
H           17.32081982186330       13.21520749672374        8.22167857341178
C           15.74893917737524       12.92600608975866        6.76504827945709
H           15.98144572966321       13.84004136581608        6.20833384884798
H           16.25027523680853       12.09187113743419        6.26477230862578
C           14.23479877685574       12.69861267945791        6.76741471699546
H           13.87979915830852       12.62991570390861        5.73213809864657
C           13.53604455883235       13.87496439078053        7.45503638130024
H           12.45206784707533       13.72970339769536        7.43560485186202
H           13.75289094608597       14.79978444338414        6.91410927281317
C           13.90434957894211       11.40422952837206        7.51654621382179
H           14.38438248920569       10.55355284171574        7.02337232761428
H           12.82323361827090       11.23250692205775        7.50599784788627
C           14.40010908241707       11.52153408338333        8.96232837647686
H           14.16447741312957       10.59905597325206        9.50730033925595
C           13.70175337547058       12.70187141294624        9.64995369264362
H           12.61903645708419       12.54328989447238        9.65784499377764
H           14.03371019401760       12.78730549323495       10.68866889982131
C           15.91650686166055       11.74956556716486        8.97000288696220
H           16.27676663149161       11.82249935095252       10.00094831088428
H           16.42234344417983       10.90351889165052        8.49498735560837
C           12.46470696896962       18.49408858571539        0.41982574193169
C           13.84928620523797       19.11424193092046        0.58809007887293
H           13.90617186561220       19.63919396115543        1.54580705605832
H           14.60708146090248       18.33076672196582        0.58728368331781
C           14.12657912653769       20.08900605806264       -0.56151821368447
H           15.12368913858997       20.52576327187922       -0.42390018941682
C           13.07313534077300       21.20155960295321       -0.56557234334020
H           13.27602733068500       21.90722508870216       -1.37666678449748
H           13.10937647690078       21.75299517628538        0.37922501795878
C           11.68837498862992       20.57347776634851       -0.74364485147688
H           10.91841927625462       21.35501218752443       -0.73169674215663
C           11.42250997974634       19.60577646179184        0.41101272952379
H           10.42458585544412       19.17633856437572        0.30242732076207
H           11.44397038185572       20.14400941480130        1.36328706509209
C           11.62889361304655       19.80652968788317       -2.06932382163209
H           10.63419747859833       19.36917071271771       -2.20155163876388
H           11.81019454549295       20.48902177344285       -2.90513647884042
C           12.68826621953751       18.69820939573085       -2.05976723875130
H           12.64922561536675       18.14518199733807       -3.00635152503816
C           12.40803099218464       17.72875556032184       -0.90259713826079
H           11.41780340232903       17.27827375964541       -1.02360590523089
H           13.14557923878985       16.92105360000966       -0.89641646014097
C           14.07868979585865       19.32147679427064       -1.88759755755530
H           14.28786167284895       19.99979143631607       -2.72032704022819
H           14.84286164914931       18.53771904401470       -1.89066263942371
C            7.65059096826674       15.11256312734647       -0.34790782458271
C            8.51552792980054       13.91019598002004        0.01619471679384
H            8.13511923155390       13.44444059269913        0.93045870435450
H            9.54286164968637       14.22841182033339        0.21574535345927
C            8.49594488161906       12.89268221774611       -1.12952582196298
H            9.12066447652255       12.03344745573327       -0.85605685125425
C            7.05783553936282       12.42296119889594       -1.37186760284409
H            6.66492358145833       11.94495523554304       -0.46832198661238
H            7.03529984518237       11.68572218517030       -2.18005179401582
C            6.19187905703222       13.63260995725173       -1.74032189174196
H            5.15862901580928       13.30692695045468       -1.91244400152561
C            6.21359701460459       14.64344896921489       -0.58705934474602
H            5.82463460703443       14.18031481188837        0.32538833464230
H            5.57498277776912       15.49824612652960       -0.82474455083074
C            6.73971139276964       14.29448295052394       -3.01024524734943
H            6.71075394903523       13.58415730153991       -3.84204577777572
H            6.11803889619746       15.15423845128696       -3.27924633344754
C            8.18264925341196       14.75102228616912       -2.76445764166898
H            8.57558864892588       15.22810388005848       -3.67054601437268
C            8.20860527599258       15.76474669799805       -1.61376239202891
H            9.23375950104087       16.10081501285990       -1.43008030501596
H            7.61233288350708       16.64039718974455       -1.87928893738675
C            9.05249772852478       13.54363781319941       -2.39974012114468
H            9.05316443196567       12.82066370963715       -3.22100051807171
H           10.08499484380289       13.86485364344248       -2.23112153408915
C            6.09132685756461       22.36600492886069       13.18163523182113
C            7.36326219268110       23.12467616363977       13.55253784739747
H            7.50878752249444       23.95167035792788       12.85167547979647
H            8.23161505322115       22.46336232851265       13.47368417415269
C            7.24271086655427       23.66459456742596       14.98106848639220
H            8.16355162189717       24.20042163900787       15.24252120910006
C            7.03940824649845       22.49398323609333       15.94791728808989
H            7.89436110263484       21.81503160042654       15.88086423446958
H            6.97699945804473       22.86186610997565       16.97641056548155
C            5.75595205092690       21.74330339529110       15.57750619103493
H            5.60792946234187       20.90542525514358       16.26970012468997
C            5.88070812983225       21.20054887748734       14.14888869345570
H            6.73001337629178       20.51264749301763       14.08380267616922
H            4.98031517306464       20.64593276429846       13.86980977607965
C            4.55801638470102       22.69653737143064       15.66163098837502
H            3.63780519513909       22.16226064598835       15.40554384891853
H            4.45504162606373       23.07534273908166       16.68302202910023
C            4.77040097099046       23.86377874744931       14.69054209801388
H            3.91147427215762       24.54421125439839       14.74115179461484
C            4.89640818980523       23.31983073552741       13.26215869063476
H            3.98227405497928       22.78988356563044       12.98075895151166
H            5.03778975074347       24.14372608865309       12.55538691867573
C            6.04920907177655       24.62228573727356       15.06393087311236
H            6.19838968941426       25.46288841526389       14.37859969102029
H            5.96250315151026       25.02467278822687       16.07774897197099
C            6.19786941640589       26.59085487230088        8.84791624230679
C            4.73759485627972       26.15060657634215        8.87962626553137
H            4.47373711540029       25.67498658197931        7.92988202719199
H            4.59746289531497       25.41289675448651        9.67493928810998
C            3.83934847468669       27.36683555627901        9.13067708673078
H            2.79157949397931       27.04208256870144        9.14973914921775
C            4.03950870674210       28.38895384494169        8.00624436819226
H            3.39138369934286       29.25511480209148        8.16988640588867
H            3.76850068077197       27.94148658298546        7.04448392181541
C            5.50736602529020       28.83079070697420        7.98191499387333
H            5.65786209216387       29.56106513822472        7.17760447043388
C            6.40226142789988       27.61123646143856        7.72734944421790
H            6.15056235298926       27.15386799616547        6.76552429389256
H            7.45280922204170       27.91315855191387        7.69166386168924
C            5.87935970357993       29.46531010577746        9.32715668310599
H            6.92365293258291       29.79209924521216        9.30837421436435
H            5.25419468515907       30.34459134753822        9.50951604516285
C            5.67418997245545       28.43837003704887       10.44694704955442
H            5.94383740454625       28.88724719410209       11.41067394697283
C            6.56939447275630       27.21880499864884       10.19260761894211
H            6.43695391684427       26.48106577689844       10.99010863674016
H            7.62184365951417       27.51666720108749       10.18195889315298
C            4.20638303084568       27.99646319750284       10.47926656070260
H            3.56154602751974       28.85799440217684       10.67681269441880
H            4.05334477124591       27.26898207651009       11.28285159637711
C            2.76081136450817       17.96972488118559        3.95938841893535
C            2.46744683265859       17.25663464925975        5.27698201061505
H            2.37959883354784       17.99048346404457        6.08298297411397
H            3.29323975278530       16.58535187326040        5.52946151199389
C            1.16013820869080       16.46551471643438        5.15708470153103
H            0.95832149675617       15.96098916948069        6.11019440992596
C            1.29712493721103       15.42361034299785        4.04315435786532
H            0.37241710350143       14.84552782702933        3.95291606348444
H            2.10416559844637       14.72832992965905        4.29049338695604
C            1.60102599922821       16.13409331826923        2.71928861025250
H            1.71106019825188       15.38983180368261        1.92059756270161
C            2.90500201441017       16.93246835562547        2.84539199140381
H            3.73818930912015       16.26176850173708        3.07685766182767
H            3.13313657007245       17.43167173781529        1.89894884333041
C            0.45036774571913       17.08863378069471        2.37875533766396
H            0.65264232734838       17.59224731556532        1.42830727376658
H           -0.48108853426752       16.52471580698479        2.27000397855912
C            0.30539119819098       18.12676106464034        3.49793080372955
H           -0.51440156040634       18.81423868674493        3.25593446029201
C            0.00927889347405       17.42271741449378        4.82722378836432
H           -0.92965334034523       16.86549066556183        4.75455972600858
H           -0.09912811839025       18.16422531314990        5.62512561389547
C            1.60919928528971       18.92425182592111        3.62643888419796
H            1.82722298216004       19.44766348360051        2.69105534628252
H            1.51591931325067       19.67478602009455        4.41703693690581
C            2.96848831657754       21.37564742885120        8.96207908164403
C            1.76439375181778       20.94389688134961        8.12323810997836
H            1.56815611160108       19.87936175463110        8.27984194173878
H            1.98620539363540       21.08984981711383        7.06142081586028
C            0.53806675288809       21.77385124814203        8.52169766777514
H           -0.32300851554733       21.45598167399917        7.92095085700099
C            0.23319387923019       21.55916812200674       10.00929634277232
H            0.01698542287700       20.50255812093486       10.19555347296748
H           -0.64955846486243       22.13934384357859       10.29520960970034
C            1.44192046707122       21.99895565357668       10.84462190119334
H            1.22883665458216       21.84341960836760       11.90938255348935
C            2.66285793848937       21.16028226589984       10.44744368478178
H            3.53711467684864       21.44132764704321       11.04358929404774
H            2.46301764103126       20.10054014916259       10.62915341739581
C            1.72750837093832       23.48360279210010       10.59114067868303
H            2.58275146308860       23.80865132626073       11.19219932191947
H            0.86247420067066       24.08650813370755       10.88400500083801
C            2.03141484812614       23.68930686111313        9.10339450802098
H            2.24173429337740       24.74904075115063        8.91471594112124
C            3.25858922973579       22.85321383411110        8.72320282440324
H            4.11387156881489       23.15665277479857        9.33381991855782
H            3.52571936529059       23.01807870724697        7.67782627005885
C            0.82598162912883       23.25628746844720        8.26266033375338
H           -0.04756208083464       23.86014749229732        8.52671923334642
H            1.03591210079380       23.41565966138212        7.20014038027361
C            4.51466448807208       23.43174242249168        4.05495185314062
C            3.42653104441561       23.77029262771901        5.07092622516493
H            3.82701593264563       24.45337027568643        5.82671530835123
H            3.10357895041119       22.85561637647342        5.57582283285943
C            2.23719633808241       24.41999011009915        4.35531222271343
H            1.46366312101091       24.66445044053417        5.09410499056404
C            1.67229793434770       23.43646380971426        3.32490856092911
H            0.81169142207268       23.88065139758629        2.81568568911075
H            1.33388920595074       22.52470618654115        3.82767060466864
C            2.76479934703231       23.09508790381236        2.30610440862708
H            2.36669246274497       22.38760149660158        1.56847854892503
C            3.95780914318285       22.45399202798830        3.02400283470039
H            3.65732967295488       21.52163392456465        3.51102350723837
H            4.73896121245276       22.21057113179654        2.30024427615730
C            3.22962643962539       24.37145865723904        1.59573610451423
H            4.00113392482654       24.12617018928202        0.85899092031340
H            2.39078795739294       24.83139808465271        1.06454947871478
C            3.79169512288525       25.35136828896502        2.63247205167263
H            4.12904859303174       26.26547246512248        2.12873731973246
C            4.98165401012006       24.70683593078852        3.35534508846409
H            5.39666640058980       25.40230302479334        4.09212726044297
H            5.77372456249127       24.46634672988090        2.63962483496562
C            2.70281889816717       25.70103820984727        3.65417410701303
H            1.85757505690884       26.17857125828141        3.14941184638229
H            3.09693827248053       26.40666807828711        4.39286707742717
C            7.17467310205302       20.50825713524596        0.30627735693244
C            6.07758232465878       19.70583840128523        0.99980745034833
H            6.49161727568999       18.75906873200501        1.36027975295768
H            5.69530210855470       20.24971233037434        1.86687566328338
C            4.94045063220190       19.41781930659126        0.01475931667466
H            4.15625352287060       18.84974322310914        0.53192453480679
C            5.48863896825469       18.59480714470877       -1.15340031919911
H            4.68711391744598       18.35472403710146       -1.85852381919833
H            5.89809756257736       17.65554834722529       -0.77049516014012
C            6.59090029177303       19.39270437004697       -1.85888012670429
H            6.99197847477761       18.80496422698549       -2.69418229730723
C            7.72317365628605       19.69286579431254       -0.86794641228343
H            8.15039920823473       18.75778934477187       -0.49612109300934
H            8.51848236365611       20.25399711769830       -1.36635424664219
C            6.01524846872435       20.70993759384726       -2.39063811953560
H            5.21670269272777       20.50498551891348       -3.11034064789766
H            6.79646629455514       21.27740172009463       -2.90594952424567
C            5.46341670176831       21.52667929071037       -1.21650626508204
H            5.05430806471363       22.47459178835753       -1.58777175299881
C            6.59339993607964       21.82246630900033       -0.22259065073147
H            6.21105479746018       22.41529972006156        0.61361052925484
H            7.38227736943585       22.40364838844780       -0.70868400777595
C            4.35775271802751       20.73114701372195       -0.51453068116091
H            3.94446314339596       21.31552848354580        0.31166647382189
H            3.54403831738669       20.52181179327185       -1.21582692712997
C            5.72988990480122       12.59640751382159        4.25651756952091
C            4.61322956393639       13.35790636518077        3.54933841237216
H            4.16965160787959       14.08121556010444        4.23959912973445
H            5.02208238841728       13.91629463002115        2.70208006602445
C            3.55209652267477       12.37101543605307        3.05040624664539
H            2.75736889762679       12.92741504322987        2.53847804031036
C            2.96281509975194       11.61153573838463        4.24378983840115
H            2.19501359790254       10.91222584062420        3.89954311889115
H            2.49146137622895       12.31531773094965        4.93697169083296
C            4.08476511646860       10.84876124317931        4.95610938411111
H            3.67330860210043       10.30853050903840        5.81741139960850
C            5.14860202532860       11.83872516592554        5.44901485252188
H            5.94636013393126       11.29394314956292        5.95853378241562
H            4.70970783972699       12.54514388347875        6.15975383187548
C            4.72928391653324        9.85207523026917        3.98558548727291
H            3.98166084802761        9.13188546999561        3.63986432115926
H            5.52286233049247        9.29636568137307        4.49499920491780
C            5.31199577626944       10.61467847790779        2.79019587159907
H            5.77884767710548        9.90709121444712        2.09416872382306
C            6.37210786651060       11.60584275396705        3.28456314697491
H            7.18535678527303       11.07361416402465        3.78671083615679