510
 energy: -749.898023230822 gnorm: 0.000574897915 xtb: 6.5.1 (579679a)
Au          13.50415203172846        8.38823973176099       21.86172761339681
Au          15.68359167928056        7.08716847135644       23.39432359262160
Au          17.90446399760232        5.81010100108621       24.85861775194841
Au          18.58772099278501        7.74701087308776       22.96768004899402
Au          16.41135095522565        9.17111738838962       21.22217764855554
Au          17.16603480703019        6.34845741226863       20.70067703589295
Au          14.92526500513620       10.43655377663513       23.48238458314905
Au          16.00111948822685       12.03325949785388       21.45056610635861
Au          13.89223389405814       10.27692138473478       19.83655330334810
Au          16.69140841902049       10.74058110086735       17.43032687854996
Au          18.01470665560357       12.56868281893793       19.37748208154155
Au          15.09718404488150        7.45870760625371       19.20173176211432
Au          15.40907356998033        4.37073996390436       18.42092740284576
Au          17.82953532005432        3.75165232694267       19.98319448983201
Au          16.53205121409972        4.25633773528962       22.49207801699845
Au          14.00361700531069        5.67608167073313       21.43813484448145
Au          12.82875366593776        6.55339799565565       23.83495450421271
Au          13.76745277049855        4.08124130466294       25.09993121602942
Au          10.20428051192666        7.35261994801433       22.63402217503543
Au          11.25449213714910        9.21015280004862       20.49022157204488
Au          11.66255704219354        6.59095795410853       19.39690026040199
Au          17.72999154878645        8.32951370567270       18.77398170821720
Au          19.40126500361298        9.58003746306163       20.98466577701678
Au          21.24051714149735        8.88489962902054       23.05296842744243
Au          23.01778725674499        5.64589619782077       22.20351828155773
Au          19.26731167840318        4.86207616745531       22.07819736924086
Au          18.60566379685549        5.68661296297199       17.77036471900324
Au          20.23367121814987        9.06971547665048       25.84116651698675
Au          17.69332095955927       10.79193422979372       23.29927202893772
Au          16.89557246287885       12.11597150355970       25.95962698453081
Au          14.09411395608283       11.60357506968010       25.82802997117428
Au          14.66626357198717       13.69936289220474       23.62398063433322
Au          12.31373677236412       11.21069974902706       22.01062416757815
Au          12.03814362172530       10.18595438299847       24.73547145588692
Au          14.26965299527413        8.68533124610673       25.54051790481078
Au          17.29743062070514        8.48475099979587       25.37667067458132
Au          15.59007147138974        5.57089044400796       26.91626447324103
Au          20.82695698420546        5.88776847895137       25.52252396564799
Au          20.79529029930800        7.13384276606486       21.02174819442613
Au          11.14753671941400       12.72613859862074       25.92998039750774
Au           9.38966820038864       11.38496541499811       22.51978916445519
Au          21.16247026306399        3.33229471941176       19.73492980612561
S           18.66587313754279        9.55900248828018       16.82017358334786
S           19.95044362478835       11.23119171284507       19.22446792398193
S           16.07755171391339       13.86863229619309       19.77176651378561
S           14.54033557542526       11.64083014247682       17.89574493884399
S           16.73130515518362        4.91860644628203       16.53680098578583
S           20.68333643782593        5.96414914337635       18.83553885596230
S           19.30668297493832        2.17552821860281       18.80112551366880
S           23.28726348468620        4.21279409179887       20.36014862692146
S           22.96032457909255        7.20663530250980       23.97254479445789
S           19.97441590026798       10.86024400662899       24.28757914754089
S           16.78405400408796       14.05546763736858       24.63902742482573
S           12.54339295352496       13.59358994510981       22.63712902401123
S           12.70021903299905       12.49078591411402       27.67641583799773
S            9.40356990627700       12.89615263588561       24.35952310244821
S            8.91868346329270       10.06283990692859       20.61126855605772
S           13.06658644693588        7.57646424046093       17.80172595100476
S           14.16453810247770        3.53866080197620       20.22952779870486
S           15.58127435717499        2.81019041480856       24.22081197830964
S           20.95999656229698        4.27168974244580       23.79791382050442
S           20.77397444382818        7.35743502600208       27.37798509003299
S           17.43801501212948        4.10254558821512       26.64427237205402
S           13.76820148898995        7.03038567789476       27.29287095715430
S           11.69141305369976        5.17455863834124       25.57321596960591
S           10.04381481943548        5.75414058160529       20.89321987196837
S            9.90802010439616        9.06928768543227       24.20568438853869
S           16.72412772573965       10.10342512768976       27.16148906179657
C           18.02286676877958        8.65863111603378       15.37966028806399
H           17.14282958062164        8.07887567653606       15.67283136455810
C           17.63223229756610        9.64191953695092       14.28053089770137
H           18.49699004623945       10.25945820923503       14.01900833741937
H           16.84819852559685       10.30669736562974       14.65300645416347
C           17.12515193059494        8.89059346381861       13.04734763906179
H           16.88183767435421        9.60767909195895       12.25813219882548
H           16.20636892735993        8.35232396394218       13.30472190142520
C           18.17485855361268        7.89934458239887       12.54105172486875
H           17.76895206088929        7.33383027296018       11.69723838783680
H           19.05457577145902        8.44741443789162       12.18729373783302
C           18.58953408124183        6.93570253309731       13.65424726373627
H           19.37275767594465        6.26366121488333       13.29182859633633
H           17.73097743853642        6.32302579974101       13.95276016159182
C           19.09989672795360        7.70876423384626       14.87110485805801
H           20.00144713162047        8.27482639993742       14.61758785635944
H           19.36094543014914        7.00354166361061       15.66481626969685
C           21.23079156955176       12.16436481219194       20.10207801944572
H           20.91197160733290       12.35176258953116       21.13224894652085
C           21.47740534110917       13.49665991824154       19.40251927238069
H           20.56318917590557       14.09623966823433       19.43290489320182
H           21.72556266925047       13.31711875078184       18.35193135369364
C           22.61514811410687       14.25351587513412       20.09219554287855
H           22.32245470714792       14.48954487702714       21.12155178488360
H           22.79518775912278       15.19776004378046       19.57045932889849
C           23.89451184429041       13.41429110947012       20.10184141691564
H           24.23019532716646       13.24820885157328       19.07276837047906
H           24.68499616214567       13.95474834558579       20.63075282144700
C           23.65061119352166       12.06654782935565       20.78285569687753
H           23.40644628589814       12.22849968502932       21.83821372812001
H           24.55821487985741       11.45740485753757       20.74016493108438
C           22.50000194666291       11.31679431776159       20.10980977912971
H           22.76749974680688       11.05796897419855       19.08044199859510
H           22.30828375087883       10.38380171118940       20.64810247196253
C           16.77152369151114       15.36178528903987       20.51945963860099
H           15.95874634356653       15.82295858323677       21.09153094341319
C           17.18506410045662       16.29704823295652       19.38376386784728
H           16.32802005301602       16.47789404173960       18.72982108151788
H           17.96404207824144       15.81109068036716       18.78727252802230
C           17.70659842287391       17.62407856365766       19.94027560079675
H           18.01845628234065       18.26815388049520       19.11320707461104
H           16.90247782482991       18.13538253309413       20.48053659484597
C           18.88632416064053       17.38256630570076       20.88355015455856
H           19.72038666444762       16.94490416373463       20.32426524300811
H           19.22501824331174       18.33383937838432       21.30412263378939
C           18.47789524377295       16.43655806907783       22.01284939727663
H           19.33682364320691       16.24030532022972       22.66095072199697
H           17.70071636401144       16.90893391448503       22.62340290699492
C           17.95134769620861       15.11537975847430       21.45138135074789
H           18.75098994598937       14.60783732847734       20.90293621053825
H           17.64601915102441       14.46115688706183       22.27203156062029
C           13.59200226202485       10.83320227871107       16.58045183171888
H           13.88965440403568        9.78233446258865       16.51474159207149
C           12.10080293351134       10.89527654876331       16.89028417731972
H           11.79051459685213       11.93556491779128       17.02587248140903
H           11.90560395711567       10.36162641391846       17.82522463202131
C           11.30182430238966       10.24431600498895       15.76048672135856
H           11.56283894778652        9.18140387158234       15.70522481564175
H           10.23274658503152       10.31467909411966       15.97910003336289
C           11.59869226721288       10.92137811393737       14.42195668879644
H           11.25547781995918       11.96096417717179       14.45574459057675
H           11.05110871273129       10.41207759921175       13.62353387196016
C           13.09779372578893       10.88830522787907       14.12039076056802
H           13.42332688559414        9.84998809545408       13.99130684106521
H           13.30025667784827       11.42050448391481       13.18654400259858
C           13.89347373621888       11.53174500904721       15.25837991240522
H           14.96368936827705       11.45911757796195       15.04702776799119
H           13.64079874871169       12.59337987234046       15.34295341143539
C           17.33164542131187        3.25951934501868       16.11169098246107
H           17.67049482099567        2.76476680493673       17.02634315056242
C           16.20432613578273        2.43701583182367       15.49884221286941
H           15.84639057874842        2.91902638629092       14.58343512070125
H           15.36672358784436        2.38530669207068       16.20071960349928
C           16.70940924184942        1.02421046290891       15.19176247294279
H           16.97723845345393        0.52585318863815       16.13007723784335
H           15.91044941902583        0.44498333242849       14.72022015942714
C           17.93038403258075        1.06978011961206       14.27007262303613
H           18.30623428855322        0.05481781767130       14.11201759054252
H           17.63749481935806        1.47556406087965       13.29573150914257
C           19.03634563075358        1.93918192440086       14.87226357166242
H           19.88390864914324        1.99154713145570       14.18328406729063
H           19.38835786365317        1.49538726492746       15.81092365437455
C           18.51404222583832        3.34960662677118       15.15508865676629
H           18.20964693037860        3.83980337188982       14.22515404275465
H           19.30587984807643        3.95134532180825       15.61024003143137
C           21.71695296929573        6.94156948254976       17.71647691481143
H           21.12343938081750        7.79022107449109       17.35927454369837
C           22.14144429923292        6.07247811234346       16.53676881342948
H           21.25588809409011        5.71160159856824       16.00665181391209
H           22.68731818416198        5.19908507940806       16.90770226265575
C           23.02710309869589        6.87890319074912       15.58338792026348
H           23.34239751821555        6.24148173740040       14.75251917791440
H           22.44969339492726        7.71215378341671       15.16826665196120
C           24.25536563597676        7.41925645091789       16.31831391648766
H           24.85500660172214        8.02687263345349       15.63453629940279
H           24.87526362598931        6.58261326275920       16.65786769116511
C           23.83558053929474        8.26451533071368       17.52253164945380
H           24.72235987288682        8.60273802673026       18.06602701254065
H           23.29177194940171        9.15145852742715       17.17987785697721
C           22.94127268008451        7.45513916896325       18.46361676312402
H           23.49637169699833        6.60834929290476       18.88099270098663
H           22.61956204870746        8.08844716854667       19.29560107122533
C           19.21035945358440        0.63630165066231       19.75022841696783
H           19.05808424281134        0.87131406409589       20.80752971694210
C           18.02147072570609       -0.17078854830851       19.23839242569311
H           18.13926433610573       -0.34984259478140       18.16458877569179
H           17.10356655702132        0.40570389000029       19.38153115607523
C           17.92711150521635       -1.50358615605068       19.98680245888553
H           17.73859364967610       -1.31056244944344       21.04867381857687
H           17.08726183396326       -2.08442072170865       19.59511224374222
C           19.22349186217021       -2.30211991862456       19.83916457384137
H           19.37426798372460       -2.56546836371459       18.78684221825501
H           19.14928040150913       -3.23142049871628       20.41133487164518
C           20.41607522911658       -1.48433277471857       20.33803502814605
H           20.30682105674211       -1.29173695768303       21.41109536609157
H           21.34151944647567       -2.04837587220617       20.19106365383485
C           20.50612735677383       -0.15222197613980       19.58968219694147
H           20.69618088821833       -0.32911467573035       18.52640966197438
H           21.33843077006472        0.43653309124456       19.98471939611883
C           24.24507910946078        2.84047349876514       21.03629470392145
H           24.48329597063661        2.19725977561099       20.18242532336065
C           25.53984316587510        3.37740155629172       21.63959081006826
H           26.10166044849761        3.92234268642442       20.87641422932641
H           25.29442901038663        4.08457315087526       22.43993773867111
C           26.38954372014236        2.23751935960963       22.20672578121830
H           27.29406551109649        2.65127374500171       22.66193275288581
H           26.69694981908115        1.57117562958711       21.39371347207259
C           25.59968492793576        1.44458297845973       23.25015804928709
H           25.35788481941769        2.09423224351625       24.09845030311827
H           26.20945815591251        0.61660907055514       23.62307434517237
C           24.30725574684192        0.89986071997054       22.63950473982928
H           24.54729735951990        0.18809663563459       21.84236604224537
H           23.73076366767579        0.36764587705198       23.40212426542405
C           23.46215408880247        2.04007715069421       22.06990893465580
H           22.55929821318097        1.63270884194183       21.60575516826922
H           23.14554601743260        2.71030990751713       22.87564534019118
C           24.59390627568604        7.99829581988287       23.90087729150362
H           24.90706740394078        8.03493508912137       22.85341496337916
C           24.50314854139717        9.41834088439632       24.44402350158223
H           23.81180419620027        9.99334658623664       23.82098382564576
H           24.09711946813185        9.39969741126824       25.46022017735669
C           25.88041776516094       10.08504038792521       24.44210186049435
H           25.79981070401611       11.08702585675181       24.87374640935729
H           26.23157766739702       10.19108103746011       23.41011094495079
C           26.88358507002732        9.25425044607837       25.24439561873018
H           27.86947974535610        9.72589378079477       25.20046401005531
H           26.57372187658425        9.22124202830994       26.29476221000890
C           26.96930066735901        7.83015191888086       24.69217837602713
H           27.66072481896685        7.23888017770628       25.29919980460975
H           27.35784226614859        7.85632505786987       23.66850705593509
C           25.59117102985513        7.16283152467893       24.69640057023281
H           25.23321399288184        7.05402247866412       25.72503889040239
H           25.65873574029503        6.16311414592761       24.25847003036961
C           20.42480552039951       12.41779625449467       25.10506367986018
C           20.36662527113555       13.53119581092064       24.05804842235190
H           19.33401726157582       13.88011897277410       23.96554365719419
H           20.67174292952796       13.14153908961075       23.08206889875358
C           21.28586503130563       14.68756056269164       24.45098501921069
H           21.00540521770648       15.04772141299734       25.44612923006776
H           21.15031073382053       15.51586718837471       23.75040113584934
C           22.75560607228331       14.24410886323435       24.44537538443856
H           23.18399701318869       14.40227463730610       23.45114854875951
H           23.31910272500662       14.86302390095197       25.14967578382183
C           22.90161895564959       12.76231841399209       24.82053669828995
H           23.87835276347774       12.59203655421020       25.28119752711807
H           22.84738959165148       12.14347814924385       23.91934287228277
C           21.79487983176039       12.32942539652375       25.77819044225438
H           21.97394472012283       11.30573403364087       26.11663711382505
H           21.80051993664923       12.97269071514063       26.66478440116146
C           16.57984545729813       15.44962010993174       25.78080684620676
H           16.04243597470763       15.11204412175594       26.67119428568709
C           15.78585037178899       16.56070019821268       25.10333224130907
H           16.25580676867936       16.81618929038698       24.14895687132586
H           14.77521241545425       16.20125309753965       24.89012389561692
C           15.71360410727780       17.80186481985569       25.99487082340995
H           15.15044336459624       17.56458393976164       26.90382139196494
H           15.17736963361008       18.59513895863620       25.46672279441274
C           17.11551876971314       18.28286514118806       26.37122083366943
H           17.65024260459709       18.59563950033520       25.46799026101362
H           17.04055374879532       19.14860149191674       27.03525870268311
C           17.89628574968681       17.16704930007946       27.06694146561342
H           17.40470458203873       16.90690276691107       28.01050361552105
H           18.90819252989096       17.51024909588275       27.29991574605477
C           17.97571939615520       15.92709433453253       26.17297452511137
H           18.54075480943172       16.16230985142028       25.26555676064163
H           18.50020874312683       15.12242597835931       26.69603491708846
C           12.78563965285637       14.28213507616084       20.97964141075975
H           13.71572523480654       13.88536364322372       20.56126854522411
C           11.63270495310301       13.87805661762025       20.06908223968517
H           10.68603553487601       14.24810710800290       20.47511884997600
H           11.57278639685942       12.78755286213624       20.02154864266804
C           11.86926816437008       14.43044802312866       18.66260025633784
H           12.78309786614388       13.98396194237752       18.25238441604064
H           11.03472082765969       14.14771115078705       18.01425811368866
C           12.00445104455902       15.95348054808231       18.70193182315942
H           11.05832295498955       16.39585783565328       19.03201315425911
H           12.21970831339621       16.32957035659507       17.69764291629163
C           13.12623440746692       16.36894786608865       19.65521471505595
H           14.08129378784000       15.99300379776948       19.27243441588065
H           13.18785592397318       17.45969158278756       19.70640648724826
C           12.89172566675607       15.80109583324112       21.05859796448388
H           11.97469301921813       16.21448466045393       21.48986215738838
H           13.72404330091709       16.07594319718986       21.71328871675507
C           13.35913308966393       14.09380409298580       28.20310010566216
H           13.73448973119360       14.64431770202322       27.33528363655657
C           12.24574890021299       14.89191040874615       28.89138790098981
H           11.52610195948556       14.19929569296339       29.33632322079746
H           11.71441005732764       15.47613077505506       28.13416772305004
C           12.79458380128526       15.81750684427615       29.98844154581730
H           12.81430154783548       15.28666246169155       30.94558298204264
H           12.13032417177437       16.67856552545579       30.10141971686249
C           14.20696453090328       16.29111299903492       29.64825914220418
H           14.53880536478675       17.03055148306000       30.38220467416470
H           14.19522705149618       16.78077329428957       28.66855869070677
C           15.18706668262064       15.11044189438288       29.62961233077532
H           16.02378414357579       15.35023923918570       28.96630945608318
H           15.59857926383672       14.95340470222811       30.63094835352737
C           14.51298895810047       13.81118467835298       29.16173985271699
H           14.12784216007048       13.25337729939401       30.02062022613353
H           15.24935507392723       13.17545648587271       28.66229479215804
C            7.97622822465167       12.25955809652815       25.27754533716460
H            8.11215047010122       11.18446841286861       25.42543537682281
C            7.89618476749167       12.95707771068053       26.63895296813916
H            8.50899643118571       12.40918858325511       27.36019605120611
H            8.30371598633850       13.96887117906175       26.56084797163773
C            6.44894696404205       13.03544640933202       27.12756840946613
H            6.02408858122154       12.02684034786768       27.15988721310028
H            6.42729731691934       13.43526045706758       28.14502067407502
C            5.61424685423185       13.93287946167397       26.20131586745972
H            4.56577511642856       13.62499796412234       26.25623163899401
H            5.67188164117154       14.97057753419612       26.54316563434883
C            6.10404573937858       13.85495653096106       24.74663356650048
H            6.86966493898443       14.61659093147531       24.56527419173135
H            5.27166565488177       14.05158808292381       24.06570254473800
C            6.70192996511072       12.48016429283120       24.45648817990277
H            6.93251480310923       12.38945692109852       23.39243061157893
H            5.97427053239529       11.69891358251700       24.70129758095220
C            8.78848618982101       11.21182848055529       19.20919378615199
H            9.79234561678406       11.54996557253110       18.93925223958491
C            7.93292656495628       12.42763542740913       19.55457073149222
H            8.36298796039892       12.94164406018094       20.41846967287497
H            7.95710417431398       13.12033894646093       18.70566371064834
C            6.48814908570005       12.02812540807929       19.85409633470697
H            5.89567578698279       12.92325220614947       20.06323682147313
H            6.46655812468965       11.39298894519328       20.74577738134987
C            5.88512489056741       11.26922046627940       18.67021728997718
H            4.86760059399431       10.95184405413006       18.91650216547617
H            5.82947714187889       11.93157178493789       17.79942170032699
C            6.73580390651619       10.04414532318835       18.32907806938438
H            6.31341536194479        9.52800521773303       17.46226455602041
H            6.72812923209308        9.34953738285647       19.17616656921795
C            8.18186985594359       10.44680423761420       18.03348697561949
H            8.21468563190479       11.08489043793406       17.14339094905147
H            8.77953470039922        9.55314055887244       17.83384933112149
C           13.25303809804014        6.35141407647281       16.48463450590594
H           13.71748884753763        5.44933103376534       16.90030624587033
C           11.89289505754283        5.97967386396744       15.90900481437273
H           11.27659084397259        5.53283637507778       16.69495648429636
H           11.38356718013132        6.88197397260094       15.55619339202248
C           12.06454877530053        4.98732189647125       14.75648701181850
H           11.08415824663238        4.74040278302683       14.33958253504113
H           12.51187746964859        4.06250396662509       15.13743497771550
C           12.95907137815612        5.58173016722197       13.66709509111199
H           13.09437300587665        4.85165935811317       12.86401987112870
H           12.47508917825747        6.46678202166199       13.24027999239612
C           14.32145446879886        5.97002222605848       14.24107632452784
H           14.93088886311867        6.44044140052487       13.46414873996109
H           14.85165692554695        5.07460377416915       14.58226160639578
C           14.16788145200834        6.93780632018733       15.41615942778158
H           15.14982473768033        7.14015664040627       15.85411713256754
H           13.75310925194797        7.88773336331619       15.06596293113404
C           12.50644718259934        3.18510373777104       19.59875309269539
H           12.07111792029857        4.11058896993798       19.20196690344498
C           11.65269960329206        2.68860324121816       20.75980964667857
H           12.14163152420068        1.82928164755723       21.22776599972170
H           11.57277202069733        3.47989602602559       21.51135139330492
C           10.25385396486660        2.29207218604338       20.28485848744294
H            9.72425756904112        3.18780445343607       19.94422848796223
H            9.69327078951962        1.87532938818426       21.12670614683919
C           10.32668743363957        1.26878976233500       19.15177752147903
H            9.31712232079664        1.04282768621303       18.79681543369020
H           10.76895894697469        0.33891987093705       19.52518458909271
C           11.17055333695942        1.80555061863999       17.99412699173925
H           11.23440205692266        1.05528917962874       17.20108111974514
H           10.69584881080048        2.69980601302745       17.57516547080482
C           12.57960309206807        2.15773864816553       18.47704317899244
H           13.16576803954421        2.56708992344759       17.64873482300140
H           13.08974637629658        1.25826428972090       18.83565775378629
C           14.63776006661315        1.61532712259911       23.24095075063268
H           13.82522540227740        2.13634312450248       22.72598211786947
C           14.05468906875164        0.57005591167699       24.18689530019411
H           14.86862849900809        0.07722943805856       24.72779850236001
H           13.41593364311471        1.06331970479045       24.92385713169421
C           13.24013017197171       -0.46124276009185       23.40296319595069
H           12.38682944149643        0.03525815716937       22.92713884234588
H           12.84797184548511       -1.21679957892760       24.08967123129580
C           14.10631935764362       -1.12918878182616       22.33406463744236
H           14.90635422366050       -1.70132138660927       22.81603279220867
H           13.49907581799336       -1.82658970959750       21.74960820669820
C           14.71871661442670       -0.08000606034340       21.40582012525378
H           13.92352487318896        0.43589727829684       20.85666136719988
H           15.36239785162628       -0.56966551065894       20.67105904876673
C           15.52725340942328        0.94950955509462       22.19764421451118
H           16.38284416198419        0.47245582642103       22.68525367751120
H           15.91073186267835        1.71108589539257       21.51253574003519
C           20.27160417705903        2.74857367812371       24.52017784508925
H           19.43761589789494        3.02767182407911       25.17308447214253
C           21.34720629128272        2.04834874362271       25.34447272460091
H           22.20370453084259        1.81271925282569       24.70666996119534
H           21.69765917086557        2.71582040293084       26.13585217817974
C           20.78839292229358        0.76028052925760       25.95636177623949
H           21.57736614343223        0.25488028615787       26.52055178623253
H           19.98197522151967        1.00857438259053       26.65447015958393
C           20.25026360855905       -0.16962197793269       24.86764187192103
H           19.82243086516773       -1.06518090576416       25.32712838135803