666
 energy: -997.464014453290 gnorm: 0.000127279819 xtb: 6.5.1 (579679a)
Au           8.01479383212439       14.92750331169634        7.13799880469676
Au           9.47844917018314       18.18681827470838        8.19949824396245
Au          10.86140095613758       15.24262756024359        7.96216412821159
Au          12.07727968915303       14.20699551630658        5.70189569640678
Au           9.13948195121489       14.34035958596586        4.68448518724401
Au           6.86368905419169       16.25691607550286        5.01165252762299
Au           9.43252596498077       17.03280925797232        5.52490966466061
Au          13.33122765910869       16.93570907675367        6.17301245660649
Au          13.99924955720014       15.60201609676465        9.40324877595404
Au          12.01653288324179       17.59390334688849        8.84142769050207
Au           9.76456890709951       16.27526407206502       10.27155715337908
Au          11.21996780296303       13.69346088143006       10.95879775972699
Au          10.55898633797155       11.13500773823012        9.95189674663640
Au          10.16636687812019       12.52724986115885        7.03092298993341
Au           7.66118051559998       11.90047922332796        5.73108724883779
Au           6.14720975314083       13.15145018656736        8.22372487162966
Au           6.83954631497657       15.54496461423824        9.56283600038797
Au           5.53206673338852       17.35055738267018        7.54289201085596
Au           4.86924730813011       14.29784296746174        5.74262869723601
Au           8.71801759560413       13.38408461412585        9.55945933203521
Au           8.28038766346533       10.58613667416237        8.14226788807978
Au           6.71353924308613       11.10868434913777       10.42054036551576
Au           6.41458938715445        8.66965227078465        8.78269643729706
Au           8.38752096690998        8.83576302673411       10.62630982701019
Au           9.14822352493257       12.20337904721321       12.12562521533135
Au           8.45317119161776       14.76098521093738       13.47593038269775
Au          11.10127878157467       10.26532382893072       13.23892701649135
Au          13.52675917656648       11.88663310075485       11.90254873394603
Au          12.68687087188893        9.48730739049057       10.61748255636522
Au          10.86588571771207        8.05049910153493        9.24885899342435
Au          12.05137740736269       10.18242612695696        7.80509920129331
Au          12.71818379831165       13.13093719653846        8.23610933583961
Au          13.08980333591561       11.73558736671266        4.46348555368170
Au           8.05848290688141        7.57965768249561        6.45715286229059
Au           9.70658103568731        9.97001371823340        5.80813753769854
Au          10.42173229073004       11.12391876161108        3.15414927995329
Au           5.44188104527127        9.86222620496706        6.38051897704424
Au          11.45070453768914        6.43850840157106       11.64595739286222
Au           7.71843612139205        5.89265620873146       10.27724364683784
Au           5.79966995650532       14.45922790167182       12.06373699777872
Au          11.09924076881036       20.30192484461151        6.91575908377902
Au           7.73133438195890       19.49875587787898        4.97009878694801
S           11.63577645412368       18.11552861865589        5.03566841605303
S           15.17347421731025       16.11039560456165        7.41861899932228
S            7.20154154550205       18.99917445599525        7.73624933133368
S            3.71254009745955       15.93169303550881        6.99968991289918
S            5.97452098132338       12.88208005213527        4.22836518419059
S            8.91564496606431       16.88713873976367       12.52853039000106
S            8.09078704832678       12.58554257997615       14.35110586334039
S           12.91061703686146       11.52213803682021       14.15874809060506
S           14.28975572801743       11.81746647623750        9.65129549491397
S           13.28769465284141        9.70795677387450        5.69975301507256
S           13.20693529847419       13.91114526334239        3.50747103841084
S            9.50238540468345        6.45563161936959        7.95781801878693
S            9.95409993140010       13.36746118101503        2.55327758638275
S           10.79445425992623        8.89519627703889        3.84348691818128
S            6.27590409339112        8.14826391257521        4.97216425341636
S            4.57246368236942       11.22182646226728        8.10996024259371
S           13.60993420003904        7.44012772757501       11.73990754083656
S            9.57840802237921        4.98214408646153       11.43881497239595
S            5.60515945754037        6.39200118510613        9.31827070176307
S            9.70674050342317        8.43659582165071       12.67167145228154
S            5.50250947398821       12.11169780727297       12.32609666619381
S            5.85825829054105       16.76159423368430       11.50190164853562
S           12.84209690573623       15.48522569841509       11.44416376445669
S           12.82845383466950       19.93709936316598        8.48094325327869
S            9.42740053683504       21.09308137766941        5.44791039206053
S            5.98178285937543       18.29252779255464        3.90061085840035
C            6.79120459555531       19.95184621065831        9.15290731826037
C            5.88451795920039       20.99903399892895        9.03513939229394
H            5.44781001434330       21.22824844783168        8.07035004147743
C            5.53216798417870       21.73776481557566       10.15240774139748
H            4.81531681894511       22.54200071844565       10.03121647201041
C            6.06583509988508       21.45499893610650       11.41326551607198
C            6.98882984958386       20.41518205228550       11.50912514363878
H            7.43290254099907       20.14210468815695       12.45804116013336
C            7.34687424312941       19.67422773846165       10.39342341159227
H            8.04550442862426       18.85494798714647       10.50516644087147
C            5.59583621668053       22.25539322615926       12.62012002279944
C            6.29933350155011       21.83299769686558       13.91724599915200
H            6.09728927361688       20.78735711798927       14.14969121879678
H            5.93349639319210       22.44197032964596       14.74473715095803
H            7.37701217754825       21.97735573593673       13.84067832397585
C            4.08283154303571       22.02942807290859       12.79712584449306
H            3.53234010693103       22.36521394589747       11.91872071721900
H            3.72000164471373       22.58176160130539       13.66437223447023
H            3.87944660411214       20.96886025195437       12.94838478098329
C            5.87340662248503       23.74970473308354       12.38054501536199
H            6.93692698495236       23.90743500319004       12.19921459048233
H            5.57866200362272       24.33052057028154       13.25494435540401
H            5.31778025157976       24.11936640550559       11.51932364962651
C            4.85817048630910       11.62869515150927        3.75303755434814
C            3.49946042226384       11.70828342031021        4.03804009426006
H            3.11792156540693       12.54410236892390        4.61228152632021
C            2.62895252705780       10.72866218144928        3.59293979347104
H            1.57945711354140       10.84193235790264        3.82914967981150
C            3.07929901974412        9.62876283362351        2.86455036223825
C            4.44246646500353        9.56831810898345        2.56782484499971
H            4.85022365635918        8.74334416763439        1.99664543615256
C            5.31996600498348       10.54765461374316        3.00557539954144
H            6.37558166231031       10.46694919170170        2.77622838252769
C            2.09909543973587        8.57557793802713        2.36400861479400
C            0.89110169917765        8.43873526844470        3.30661258551768
H            1.22497133865676        8.28234060461836        4.33286149668280
H            0.28573048215696        7.58283652813312        3.00665333167808
H            0.25508542130371        9.32290137293117        3.27414905009151
C            1.61050402219862        9.01809595297272        0.97278566122916
H            1.12931998561443        9.99442948837812        1.03565401025051
H            0.89419612566862        8.29804478243150        0.57636049022927
H            2.45268228225820        9.09015827910030        0.28426086628096
C            2.76423109144621        7.19559381975028        2.25366676793537
H            3.52279708188497        7.18496070071256        1.47278976247567
H            2.01732831775574        6.44174222522873        2.00338107678505
H            3.22804570441434        6.92183653082236        3.20145443982376
C            2.91713111907316       16.66854037675180        5.62304753419552
C            2.09174620883187       15.87038905959657        4.83388314948396
H            1.94694995262688       14.82879704914198        5.09414167653011
C            1.47510039397559       16.39314090409046        3.71223108441711
H            0.84860642189299       15.73762879814384        3.11794480299305
C            1.66329310493598       17.72588788480517        3.33541605749403
C            2.46387417932451       18.52126737958084        4.15127535541876
H            2.64321728168290       19.56217349961034        3.91417790806049
C            3.07996584761489       18.00297623820439        5.28149879072862
H            3.72207178088364       18.63891307375019        5.87866617146890
C            0.99723867420341       18.24443082625741        2.06822051444197
C            1.41408213052854       17.36134425135383        0.87803785158922
H            2.50029014676883       17.35038486872670        0.78283686122298
H            0.98785720389001       17.75246402879707       -0.04619585362857
H            1.06805013624763       16.33634069215920        1.00685386248852
C           -0.52959947193100       18.17904279162088        2.25224952165840
H           -0.85537458400496       17.15435366987680        2.43006010090723
H           -1.03179049913835       18.55189605382670        1.35919480570384
H           -0.82967298794040       18.79048330461825        3.10366157320641
C            1.39042871839204       19.69340529491575        1.74849566149892
H            1.07189958798832       20.37068465440512        2.54096702209682
H            2.46909030507033       19.78225482299891        1.61616954664072
H            0.90692541842532       20.00516282073573        0.82197413231021
C           10.43038580776477       17.42365208033262       13.21387262575435
C           10.85784645030671       17.05935592578988       14.48480930587787
H           10.22072321585061       16.44567057097816       15.10979129270488
C           12.09976241924514       17.46105073732572       14.95865447865471
H           12.39116087345665       17.13452458801579       15.94944297203438
C           12.95591503764961       18.23831401171507       14.18056044284346
C           12.48399009468323       18.66356374543977       12.93687649250118
H           13.09426171038334       19.29950509389773       12.30681192564731
C           11.24467535828795       18.27192228969865       12.46739078777831
H           10.90869633359694       18.61427288987128       11.49710527050539
C           14.35516895725796       18.64311731992817       14.62679272868483
C           14.37812550239386       20.16280180400792       14.86447388379340
H           14.13041089986002       20.69432258146441       13.94623735075919
H           15.36840748520569       20.48061492942001       15.19226519362160
H           13.65172971435060       20.43380332160611       15.63096571966594
C           14.78388682643768       17.93572978257327       15.92000004586245
H           14.14785438587076       18.22451725464706       16.75682116663889
H           15.81043745403864       18.21200546925792       16.16447051971577
H           14.74085670238259       16.85304247866989       15.79911195284591
C           15.37245125809721       18.28766898299205       13.52649945235970
H           15.33687314018809       17.22087581899158       13.30886041699470
H           16.38104547910805       18.54060506975085       13.85560521070740
H           15.16756168608643       18.83331547493890       12.60588366337312
C            9.36143005290056       12.33642616551336       15.52887596738911
C            9.48727335765454       11.07224445492547       16.10201600999952
H            8.82679856773140       10.27763459800180       15.78499607858075
C           10.42327736492705       10.83593812661272       17.09567493500630
H           10.48488656474901        9.83651233309632       17.51112000274749
C           11.25834625032789       11.85263147204182       17.56375742422117
C           11.14454487947329       13.10469533720511       16.96123557407780
H           11.77734681022894       13.92908862932645       17.26581325291966
C           10.21402138573931       13.34216555573202       15.96282585087528
H           10.14446736296795       14.32927400908753       15.52343007751814
C           12.25959075215827       11.57197951201050       18.67755331166964
C           12.82608983566355       12.86417121871396       19.28453608177557
H           13.41096109996751       13.42173969133140       18.55386213708109
H           13.48141018682429       12.61828873864455       20.12091897428276
H           12.02198485386336       13.50151781792206       19.65311168774216
C           13.41837430979289       10.74489169969758       18.09449876039095
H           13.06206271923684        9.77057173894427       17.76110235752967
H           14.19289861771949       10.59199482268459       18.84657024037985
H           13.85490742684777       11.26204140760130       17.23931571686873
C           11.58221372232378       10.78037472929525       19.81072447832392
H           10.70369927419957       11.31681320008696       20.16994309899957
H           12.27735855383813       10.65372255569345       20.64130046069310
H           11.27337950003915        9.79076367858371       19.47602518900932
C           15.91421371696205       12.46216485008693        9.70958186362710
C           16.40524900342801       13.25521994191886        8.68070231822307
H           15.81324797583923       13.41281292586847        7.78763917184184
C           17.64169416813584       13.87696836932297        8.80170863758767
H           17.95665201082431       14.52588241580304        7.99446365651292
C           18.43323966589610       13.70042326960388        9.93514604248048
C           17.97049714216377       12.81440755960464       10.91274090502089
H           18.56985069015489       12.60593823501747       11.79161269102426
C           16.73141713711289       12.20904780533656       10.80666886896561
H           16.38417906209068       11.55302685020312       11.59523300703978
C           19.74581554527073       14.43704246516873       10.16860025968773
C           20.09180477485168       15.40714236187873        9.03224666615998
H           20.22511552557406       14.87204509030399        8.09297369373470
H           21.02466407142307       15.92276096252734        9.26320321437924
H           19.31125822565934       16.15769582991336        8.90757415137858
C           19.62668406373156       15.25135998782871       11.47077260614020
H           18.77787882910262       15.93324927865436       11.40936226443563
H           20.53246447125687       15.83657069490881       11.63173677216584
H           19.48429775749890       14.59776337909319       12.33087846798483
C           20.88967830621481       13.41670775871959       10.30113227248228
H           20.71252625420121       12.73485340827880       11.13227807975727
H           21.83415333698467       13.93338452654575       10.47398086758412
H           20.97594181477524       12.83151730484134        9.38549533248498
C           14.81203521358914       14.47421376400627        3.92883815610953
C           15.77848440093182       13.69682303651570        4.55182597568519
H           15.54958952077497       12.67877738247932        4.84221598434400
C           17.04271120716296       14.20537620391893        4.80663428185087
H           17.75871019530383       13.55184475918970        5.28932547423996
C           17.38477528134145       15.50918980139803        4.45224147717777
C           16.39584779531528       16.29568596644496        3.85852175881306
H           16.59960455350770       17.32544913066445        3.58791673836288
C           15.13496007130633       15.78825901076606        3.59701411100167
H           14.39617867346173       16.40978269712927        3.11128631253148
C           18.76259901492371       16.10321354030181        4.71274231291616
C           19.28307057459827       16.80042291995317        3.44290564844766
H           19.28772061647064       16.10080917464124        2.60677928985406
H           20.30088422218214       17.15636252471364        3.60572186423440
H           18.66409927728616       17.65644400402897        3.17701568361379
C           19.78918466124899       15.03535450496000        5.11458585446487
H           19.51217563487185       14.55827256273549        6.05376855817405
H           20.76764347303753       15.49826883024079        5.24764074877872
H           19.87261987190648       14.26976890499492        4.34281295689223
C           18.63581475345304       17.13071405081798        5.85096606257441
H           17.95020863718117       17.93142178118908        5.57286776870972
H           19.60804246352796       17.56750421245393        6.08097196440463
H           18.24823983831706       16.64560568382088        6.74691918740194
C           14.96325613183897        9.82032918665822        6.18313358879604
C           15.94662686586931       10.12407634581821        5.24345955554865
H           15.66782606378410       10.27826193312263        4.20801013383742
C           17.27567411793819       10.21798934359632        5.61938520751218
H           18.00933516641310       10.45599418907002        4.85738542052637
C           17.67358510411591       10.02031844033440        6.94445075912314
C           16.68623745509163        9.68817985088705        7.86905706152726
H           16.93008928808989        9.51843549391710        8.90974577858996
C           15.35842753029939        9.57221207640539        7.49108572554498
H           14.61946010455188        9.29881620431120        8.23324456965768
C           19.14429279706261       10.14944989125109        7.31714897574519
C           19.38521260287203        9.98525252856266        8.82455636530029
H           18.82754372423454       10.72991125252331        9.39271737872910
H           20.44640015309313       10.11671944145949        9.04006003189557
H           19.09299913381981        8.99047555933641        9.16194394777473
C           19.94290952470866        9.06230295333420        6.57635208583477
H           19.58904174989715        8.07368237669536        6.87061538500851
H           21.00240657356023        9.14016004525405        6.82241353821212
H           19.82913130445640        9.16322539954743        5.49739653831379
C           19.65327238705815       11.53887192936723        6.89551363023483
H           19.58839636877561       11.67115526778352        5.81605089081864
H           20.69458415803914       11.66590587171583        7.19345510365361
H           19.05531901748099       12.31268880161456        7.37667553710857
C            8.39486379751270       13.36928748904711        1.76415370237739
C            7.64629235843874       14.54445415000535        1.77620452018296
H            8.06328345583932       15.43785531867613        2.22304773314854
C            6.37012605254793       14.57597340833477        1.24692267005713
H            5.81099698277302       15.50141315377536        1.30802479750871
C            5.79628020279642       13.44276255702378        0.66628208659360
C            6.58400154279427       12.29659887681544        0.58183256735244
H            6.21011663939113       11.39790557120313        0.10685041418777
C            7.86184446110050       12.25883235179842        1.12328470393420
H            8.44297702071722       11.34742225338700        1.05767721942533
C            4.36368389796590       13.51340175043878        0.15423433127033
C            3.83348787800307       12.14246903981464       -0.28931026451830
H            4.39813289318989       11.75852985428111       -1.13900418469141
H            2.78922487914571       12.23461011537298       -0.59055844124191
H            3.89092730130509       11.42340817045995        0.52821823285557
C            3.44331540630805       14.04236208273634        1.26995898433509
H            3.49632684360601       13.39043754979500        2.14151572038064
H            2.41054805418429       14.06842209690668        0.92035630213251
H            3.72598879303345       15.04932244480857        1.57527455720695
C            4.31450342492893       14.47557318339764       -1.04564782730234
H            4.63109930320696       15.47474741099365       -0.74767649789147
H            3.29965937828314       14.53754155943014       -1.43989029293891
H            4.97696401237298       14.12343429842688       -1.83679230467010
C            9.53727378848240        7.93606681416072        3.09748871140874
C            8.74289478660460        8.37181733799669        2.04673597936041
H            8.85327348231300        9.38223118326486        1.67325316771786
C            7.81842863286748        7.52183014984251        1.45760896240547
H            7.22686590410058        7.91102892524831        0.63808434299230
C            7.66313842523990        6.20683729473985        1.89218477581285
C            8.45370832073673        5.78252175111736        2.96241998035221
H            8.36828000898828        4.77123852164547        3.34426328049641
C            9.37140010208980        6.63134583865609        3.55530549998034
H            9.98852238493209        6.27871413488741        4.36757265187013
C            6.69927876465698        5.22284088174401        1.24319826710005
C            5.68858041021329        4.73749657621571        2.29688609620088
H            6.18721422631189        4.17606584704946        3.08646566904568
H            4.94125303242793        4.09134640937557        1.83549836672847
H            5.18305575591663        5.59010359818961        2.74973301138075
C            7.50195312387215        4.02281161260781        0.70747128259191
H            8.24242014672392        4.36215386330263       -0.01729160210622
H            6.83345998798870        3.31334489240747        0.21883505605496
H            8.02002330648460        3.50688451766794        1.51542482557144
C            5.92734162795318        5.84280173336919        0.07060243670386
H            5.33788221702501        6.69875983380086        0.39935804312902
H            5.24578445106320        5.10259893741911       -0.35010982940436
H            6.60831255230822        6.16553764749076       -0.71718639066410
C            2.95574908263912       11.66740338859850        7.61686433043241
C            2.13427673847045       10.74703979322742        6.97373383669801
H            2.47913226267721        9.73128884764850        6.82279870229843
C            0.89121133519182       11.12956284463864        6.49980316168909
H            0.28611838310788       10.38811535131616        5.99087865427135
C            0.43123768131197       12.44261686970241        6.63758406876298
C            1.23583436674573       13.33307168099040        7.34619651314874
H            0.92846391906274       14.35801326439212        7.50640893536775
C            2.47247436019234       12.94819459472465        7.84574859399525
H            3.07269097448024       13.66064573673743        8.39703930835415
C           -0.88440996231419       12.84811814360735        5.98525516107862
C           -0.73643518361849       12.69164029799536        4.46013952907674
H            0.10768640475026       13.28201803536815        4.10220683288891
H           -1.64065491361424       13.03508518359909        3.95688999376389
H           -0.56917676940268       11.64886469436303        4.19162233284324
C           -1.26750626438860       14.30402541727351        6.28264269273065
H           -1.37719144921937       14.46629810388928        7.35464374023528
H           -2.22037424231818       14.53478732578265        5.80484809127859
H           -0.51883349880284       14.99348605049281        5.89226043952963
C           -2.02082983741964       11.93956785059131        6.48472789663411
H           -1.82560555470386       10.89485432652963        6.24531376751923
H           -2.96208348204510       12.22857261040370        6.01625268597239
H           -2.12818645195717       12.03346480450472        7.56515285723508
C            5.22209086966574        6.84093424079588        5.47542311730672
C            5.72980938359928        5.55587342507941        5.64319981065366
H            6.76397038350445        5.35056665984517        5.39573626267725
C            4.93365810804280        4.54996183555884        6.15931117835299
H            5.37508047975376        3.57127298274428        6.30836849972035
C            3.60480319131655        4.78787896869795        6.51925601035693
C            3.08338581972557        6.05495290093665        6.26702391306327
H            2.05077791896306        6.28992097604196        6.49263594150061
C            3.87801203179725        7.06497585923072        5.74631031475498
H            3.45525068327740        8.04904256455798        5.58344747021902
C            2.81443521889211        3.68607878340809        7.20950612156128
C            1.39588444773686        4.13018443147213        7.59223425633405
H            1.42516744348882        4.97823295929361        8.27683846827309
H            0.88054310412525        3.30893325255079        8.09157065608604
H            0.81936400314478        4.40563747506548        6.70882952372074
C            3.56531163972492        3.29658766421767        8.49707625886275
H            4.52527346619145        2.83602043166546        8.26537884929928
H            2.97491378032752        2.58872852723084        9.07915282380280
H            3.74970585782286        4.18491696519534        9.10283259063443
C            2.70853344699242        2.46890495247479        6.27445889191519
H            2.19446247453786        2.74828958189747        5.35430493953426
H            2.14649702440430        1.67120201304941        6.76081668088346
H            3.69599785095854        2.08686083236543        6.01705243392789
C           10.61238789433921        5.71646700074735        6.81094839578236
C           11.79186586594204        6.34510032059650        6.43776095676951
H           12.09995172615332        7.25591877336790        6.93503694031060
C           12.55140187985858        5.86066706676632        5.38456928052471
H           13.43041431802938        6.42571996267209        5.10113382724372
C           12.16266457458348        4.72151075937329        4.68188137127078
C           11.03007439042330        4.03818731691829        5.13707060074494
H           10.70458625636296        3.13124998864682        4.64028792083622
C           10.25812372527040        4.52856493281117        6.17883286537679
H            9.35343651325290        4.01131121149441        6.47391265343835
C           12.85330100506263        4.26403057280677        3.40332760893753
C           14.03532889475959        5.16495928833077        3.01931846582283
H           13.70712685124165        6.19273817461413        2.86326938639422
H           14.47994588402798        4.80472052853550        2.09087299161607
H           14.80532872492228        5.15184408218901        3.79008699541727
C           13.36659927833006        2.82332659574198        3.55876109232661
H           14.10813923521925        2.77351078032736        4.35587847068048
H           13.83348721613494        2.49075969256014        2.63106770416432
H           12.55187403939672        2.14043746933695        3.79747118892201
C           11.82290919356430        4.32047487258488        2.25857245308868
H           10.99037730730089        3.64300162020581        2.44675838230921
H           12.29316325428996        4.03545345532180        1.31704989674025
H           11.42887305281621        5.33230244078331        2.15990314534402
C            4.53847705904866        6.84684956426673       10.63100959813169
C            3.17658758695754        6.91381283608109       10.35435611297866
H            2.82611537883059        6.70083488672317        9.35082727594790
C            2.26896989079640        7.24260240495419       11.34977386198223
H            1.21828430923468        7.26838116257758       11.08847146451597
C            2.69308193244316        7.52920241235823       12.64644384782215
C            4.06564020257084        7.48996474174614       12.90150200234576
H            4.44766144770288        7.72536857767650       13.88827929567617
C            4.97436872144754        7.15108345200939       11.91520031322283
H            6.03280857803747        7.12833168936065       12.14730976703494
C            1.73356643494611        7.88996383172391       13.77294594655702
C            1.99567044562912        6.97176530889225       14.98037486969074
H            1.88948467985272        5.92697666984910       14.68728242188681
H            1.28073826059510        7.18656926485906       15.77516818121407
H            2.99947147989164        7.11902033819887       15.37721888549240
C            0.26270786107226        7.72431125095212       13.36590704187068