522
 energy: -881.103631489611 gnorm: 0.000728993072 xtb: 6.5.1 (579679a)
Au           6.29276751336555       16.48886436972335       11.26922588615033
Au           5.30270506007443       13.99612696004264       11.82947313232727
Au           6.63207407218665       14.40366088143883        9.33609889272214
Au           1.19248633014870       14.67104926404492        8.37474599590828
Au          11.12440917147026       11.51464836291735       16.11233643747739
Au           0.84054856181463       17.24334596101389        9.49717435097597
Au           9.66494835836603       12.67091945622347       13.92392753723687
Au          10.46841909054773       15.35734183571432       13.32985471506391
Au           0.65680731774439       14.99437214176641       11.24543366036886
Au          -1.30915949638793       15.43571520555603        9.19768664112880
Au           2.36579599640155       15.39138823388385        4.77221387613904
Au          14.74868874864706       13.14670186193065       16.44901829755464
Au          11.00632784595870       13.09085230859718       11.64369285496702
Au           1.78745632882582       12.65831146229390       12.60005743159540
Au          12.65448256465808       17.53536385424315       12.93630057361011
Au          15.36354441456226       16.51683807582475       14.72961103561009
Au           4.15196734820129       19.06141449077474       10.42030004088086
Au          -0.63879878755543       16.57619960769407        3.12001320010634
Au           9.76571532651169       13.33525983411688        8.46821398893705
Au          -3.09761957655556       17.29939114487572        7.85019318672703
Au          -2.71581191217155       17.83323158802313        4.96225008808653
S            6.44453604594848       18.94322598021240       10.93756547498530
S           -0.51179450268859       13.14097942425609       12.50467631841244
S            8.77793485943068       11.70339410226211       16.02360506134519
S            4.07732613585690       12.13364620714592       12.87133087704584
S            2.92547611119680       14.01803709159896        6.60613141393916
S            1.71466536806429       16.71749858649081        2.93480461326861
S            7.78970498509874       13.75289667548456        7.24168530698261
S           -3.78141934787658       15.36880315754516        9.03090542657921
S           10.42451369576606       17.80662946946329       13.74712672696137
S           15.59316746104691       15.37710890517012       16.79892891663876
S           15.04961798031199       17.75279873719278       12.74662171186770
S           13.46526606810125       11.21358581873007       15.71179888878204
S            1.80915184002083       19.29914104699638       10.46838996304553
S           -3.00333582734546       16.59037829682656        2.95674015361242
S           -2.39507924057129       19.28774701654755        6.80663251987190
S           11.96108292516952       13.02622757997597        9.30413054889073
C            8.38717618250030       13.20002055311026       16.96178532194004
H            8.99412070886896       14.03701682875165       16.61690731236433
H            7.34673299852486       13.43561188980922       16.72010082321478
C           -0.90873373878481       13.74863397498440       14.17098782561638
H           -1.07567162922784       14.82436938808481       14.13280960244943
H           -1.85261917053154       13.25963620261275       14.41868129544722
C           14.00406289911041        9.74131168870122       16.64491479801446
H           14.68470019212399        9.18685196059425       15.99769988203920
H           14.56263370326386       10.08594628141580       17.51510881512475
C            2.51178045708977       12.33569039538054        6.05966033684820
H            3.25671542553588       11.67741786814412        6.50859037574914
H            1.53085934831680       12.06585581866307        6.44920593247938
C            2.06911150776600       15.79280809949331        1.41116162547469
H            3.07467097444651       16.08741701305090        1.11233383732833
H            2.05549163459550       14.72193146192274        1.60893373031393
C            7.06984957136011       12.14493196374896        6.79354205704371
H            6.20368751877761       11.94872350338414        7.42716923817518
H            6.72502291817749       12.26669163505553        5.76502713330587
C           15.32481729829668       19.45757400362964       13.31142664818747
H           16.39548562606772       19.55873777788628       13.48892424534892
H           15.03458227785779       20.10597746997635       12.48493919841754
C            7.37676416015471       19.07550870319449        9.38701223853768
H            8.40536156936163       18.80696625549008        9.63422152688885
H            7.00292728611404       18.36296262516746        8.65415416136965
C           -3.23265031109615       17.89840181024150        1.71156765998290
H           -2.89879383583204       17.49077382691598        0.75706794158262
H           -4.30417016802817       18.09301803590596        1.66385408787639
C           -0.07546147343573       15.38633862232093        0.17895942754756
H           -0.19967199004308       14.46854895986930        0.74296126899403
C           -1.04375643753879       15.76835000968295       -0.73882922623459
H           -1.92498192535999       15.15282682503872       -0.87993767558059
C           -0.88150127861286       16.93325771804909       -1.47644128895360
H           -1.63811753733094       17.23354032859252       -2.19208727423469
C            0.25546598081487       17.71110380576688       -1.29729646107706
H            0.38806861167843       18.61926929962591       -1.87441270189771
C            1.22239027144873       17.33206790254268       -0.37659455446751
H            2.10426779054852       17.94687736014314       -0.23255533396376
C            1.06454413195431       16.16605426094927        0.36929086213768
C            3.71164516366465       11.89847875658512        3.90466643326079
H            4.61404028744406       11.70088653740813        4.47366727431535
C            3.73106131657257       11.80924634392274        2.52013981680348
H            4.65091561759100       11.54616231115036        2.01006691532851
C            2.57427036102627       12.04594924386369        1.78936229624286
H            2.58902028123387       11.97002751902352        0.70822694991699
C            1.39482524336048       12.36919298002731        2.44892679011979
H            0.48380128927825       12.53577831864781        1.88493195301527
C            1.37393568296916       12.46330763778793        3.83257639780382
H            0.44877502835584       12.70835748244816        4.34477879708840
C            2.53361887535417       12.22768417013524        4.57162812673309
C            8.66948213582049       12.83374531454227       21.22469753937097
H            8.71144504695473       12.75590856022488       22.30513453451114
C            8.43897757992335       11.70303044142702       20.45181479409445
H            8.31171667663879       10.73705729180425       20.92769844341426
C            8.36117543703980       11.80574618268576       19.07126735802832
H            8.17256461578392       10.92310771008821       18.47015335007725
C            8.52552924714290       13.03813059946082       18.44621278465897
C            8.77221030965071       14.16721352158048       19.22529537649120
H            8.89673134876740       15.13285243420676       18.74765546456939
C            8.83645727099173       14.06728084530249       20.60716228389586
H            9.01786743611936       14.95510321237583       21.20287169476356
C           14.53805022514710       19.77009107710473       14.54573322727702
C           13.24777275485686       20.28353891503984       14.44464342297668
H           12.85552926920511       20.55970800662309       13.47324925736626
C           12.46660091420997       20.45191917136123       15.57961498633325
H           11.45898913799542       20.84028774770711       15.48289146968206
C           12.96953354938952       20.11451153958458       16.82837019622015
H           12.35443202311057       20.23036171363748       17.71332160188235
C           14.26879204529961       19.63641423860902       16.94097117820151
H           14.67551300816434       19.38868297080618       17.91513146270556
C           15.05040360249173       19.47058719046636       15.80644370456311
H           16.07153447193296       19.12100990628351       15.90427812081391
C           -4.39483266135942       16.05638996086115       10.59870566578077
H           -5.34662692268824       16.54462485627764       10.39095036674176
H           -4.56326284518029       15.20531874096098       11.25895737988846
C            4.39674142079736       12.25754374387803       14.65704285888028
H            5.37538809950280       12.71626189931015       14.79497116192801
H            3.65206367689580       12.90709522329052       15.11725019697247
C           17.38550418223256       15.28478654081819       17.06605463434429
H           17.52993086443215       15.01314795804456       18.11290032847353
H           17.82420422018225       14.51143169982153       16.43547149239542
C           10.65906425987976        7.35858998223375       17.86993873325978
H            9.81263569071452        6.75779744454943       18.18200010783763
C           11.49677740461449        6.91086164033945       16.85797471392497
H           11.30477830915827        5.95991552069146       16.37398502844797
C           12.58718482877918        7.67471939778007       16.46321405668655
H           13.24886326794465        7.30507749162339       15.68790503210509
C           12.84813388578748        8.89772092237068       17.07508710034469
C           12.01158743187232        9.33179182329584       18.10543460521129
H           12.23132878439372       10.25820062307822       18.62441515125048
C           10.92184734123545        8.56917973778422       18.49706932147603
H           10.28148519670512        8.91931471822305       19.29893707332241
C           17.86473214162097       17.66748025446366       17.67590252111593
H           17.41994260206886       17.48382294079344       18.64799464972134
C           17.96183699965345       16.62855716433235       16.75327291199482
C           18.52351958222608       16.87571113565557       15.50156886132769
H           18.61391385115913       16.06647562721781       14.78344994308308
C           18.97914984377223       18.14521389419254       15.17681579068026
H           19.41331013977121       18.32800074331006       14.20037528472983
C           18.87747488260411       19.17788895929536       16.09902066117860
H           19.22896665745843       20.17112802671604       15.84441413000539
C           18.32444949944927       18.93539532417407       17.35037974938024
H           18.24566000450175       19.73909730221084       18.07380602147691
C            6.55145855697093       22.05109570921445        7.20363559772121
H            5.96993730511579       22.26886988446941        6.31556238797157
C            6.55534699073775       20.76539201504811        7.72497167248167
H            5.98484579197415       19.98171188270275        7.23769452943821
C            7.31789329757776       20.46938249689867        8.85130047192865
C            8.05086959755996       21.48204078659250        9.46562291627887
H            8.63745944554340       21.25549778433816       10.34869918990010
C            8.04169260701050       22.76742769950159        8.94763440129891
H            8.62326757573293       23.54669406973627        9.42753938915675
C            7.29606177611896       23.05397878674778        7.81080688629111
H            7.29939092551928       24.05517926735892        7.39523655579925
C            4.12121746539288       23.24203814914464        9.51821115106086
H            5.09599263249739       23.45280335061408        9.09362573341180
C            3.57697288955151       24.09705163031038       10.46610279866022
H            4.12688284289725       24.97535301561653       10.78441272658050
C            2.32770688899031       23.82347455802571       11.00661123734706
H            1.89916614338866       24.48737314737617       11.74920977526478
C            1.62678019245849       22.69729157219599       10.60211372669078
H            0.65505046941872       22.47894817999494       11.03267733749071
C            2.16613914537480       21.83758917236169        9.64824082707985
C            3.42132572585212       22.11551058725107        9.11177887628820
H            3.84883226633452       21.45310000904257        8.36620853656897
C           -1.33462155834329       18.68549910444317       12.01030315936865
H           -0.51159756619116       19.33093950535651       12.29296589486860
C           -2.34753297482700       19.17724069727242       11.19997845284607
H           -2.32445187858717       20.21035844362874       10.87478858554396
C           -3.38327231007730       18.34716274866401       10.79726172600771
H           -4.17844995988923       18.74288055010292       10.17526866729237
C           -3.40425276858416       17.00895119897704       11.18563483196174
C           -2.41316781344425       16.53626629193052       12.04111288419758
H           -2.44199354494788       15.50635164628392       12.37472585469652
C           -1.38446765669988       17.37075104507354       12.45409323925123
H           -0.61768771206571       16.98560123569978       13.11540946839403
C            8.32448608089581       10.42876701606590        8.12088038219980
H            7.78773206081042       10.75638575051355        9.00207075711879
C            9.25199140163855        9.40338514514535        8.22682402143522
H            9.43030339093161        8.93847912170309        9.19002616592318
C            9.93223674277815        8.96411767432860        7.09852729137790
H           10.65817623239539        8.16325008662608        7.17774967694454
C            9.67651400131690        9.55503103132283        5.86883629159684
H           10.20557679706637        9.21703849733901        4.98494403978797
C            8.74848596245264       10.58275182099372        5.76353028514543
H            8.55457582303594       11.03808925390526        4.79832687213494
C            8.06235965717435       11.02838746449379        6.89021940181541
C            4.37265349631090       10.89743242096190       15.29302771050018
C            3.35274039901948        9.98888594147856       15.01977574090432
H            2.55728460828494       10.26495608956715       14.33731086569333
C            3.35368591644531        8.73198222127722       15.60432161206034
H            2.55933942356902        8.03096938510000       15.37310420087426
C            4.36929105963157        8.37065777395152       16.47964448381082
H            4.37371024504040        7.38547315182282       16.93183219398543
C            5.38079507006532        9.27505903958845       16.76851951836240
H            6.17908905405043        9.00105744405261       17.44938198540672
C            5.38488155988026       10.52913701846247       16.17512865304697
H            6.19054026894146       11.22158896488386       16.39375070843959
C            0.97770764610658       14.41386227312654       15.68196791727723
H            0.88501652305912       15.42709199658777       15.30770620511121
C            0.13314707096927       13.41980852513397       15.19514739683336
C            0.26641112693670       12.11859467605620       15.68015424519379
H           -0.38766473601980       11.33735582777583       15.30880740145827
C            1.22282950046171       11.82271830851794       16.63955917179149
H            1.31488390717249       10.80967453607594       17.01457251908126
C            2.06206824837252       12.81976685052590       17.12079105613006
H            2.80860515532532       12.58691529706078       17.87143898227358
C            1.93959458410744       14.11546189370565       16.63620866860423
H            2.58845327940854       14.90020210937924       17.00908299554739
C            1.43454560991602       20.59360417657848        9.25978693755490
H            1.71940360105454       20.25426089084088        8.26493517043674
H            0.35461231043255       20.74079740444505        9.28963250628236
C           -3.80043584438068       20.43771109172884        6.87971619554932
H           -3.71319181048107       21.09714876430429        6.01471837992374
H           -4.75127693733401       19.91062726714747        6.82420455737031
C            9.49306135776873       18.77496027158183       12.53137078412609
H            9.42619909823524       18.23213818349794       11.59228375525128
H            8.49077628532704       18.88974570270452       12.94282521395075
C           11.05977377592505       20.29693597741021       11.30272766302628
H           11.28853348426145       19.47590439889808       10.63329480665383
C           11.67210056516408       21.52844832661395       11.12345066730456
H           12.38617022510278       21.66297763670096       10.31865039902391
C           11.36527044418663       22.58607442949490       11.96947089039566
H           11.84218081195477       23.54952267847805       11.83034764732139
C           10.44254905277372       22.40729290792446       12.99186140342257
H           10.19766015835226       23.23215136813587       13.65167864636567
C            9.83070007830737       21.17509278467690       13.17263796762323
H            9.10719519087552       21.03976124868821       13.96952086947182
C           10.13473347548318       20.10938892372996       12.32789826327561
C           12.78683692633064       11.21458969700558        7.44117229466250
C           14.05545231267567       10.69659209371602        7.19328895994736
H           14.65875351571683       10.32342866190246        8.01221604479489
C           14.55283401267833       10.63659411577979        5.89891735272867
H           15.54368106594036       10.23245740428899        5.72399051122106
C           13.78866092322736       11.09013630803253        4.83387828162746
H           14.17958197476075       11.04635196953279        3.82386924841566
C           12.51709383904571       11.59616587443984        5.06867166163184
H           11.90682948862238       11.94490596305462        4.24314442937291
C           12.02433556117769       11.65577918348994        6.36184761786807
H           11.02983151705142       12.05095549207437        6.53564239728182
C           12.24931575204605       11.29104094626332        8.83958845659514
H           11.30867369576584       10.74540091855920        8.91612420632897
H           12.94818266593315       10.86116532647194        9.55561191005897
Au           8.06215160964884       12.72646247506181       11.24323720198849
Au           9.03158227308114       15.23392930093701       10.70029841068482
Au           7.70627610448982       14.79160380479631       13.19200584214550
Au          13.14915973378112       14.60140430615541       14.15694233774727
Au           3.33629474806682       17.69788228442199        6.37395764345665
Au          13.52014531886173       12.02369725154474       13.01306709629190
Au           4.72350837505668       16.55374220781183        8.59571134653546
Au           3.85916869504337       13.88904898008409        9.21073627020793
Au          13.70370933971822       14.27630304082862       11.28602464572207
Au          15.65060782716820       13.84621655926723       13.34916851797088
Au          11.98310654488012       13.83510766723000       17.74629483719200
Au          -0.34175931604944       16.15459155857510        6.09518744369137
Au           3.35317589633797       16.18754326508882       10.86650204118036
Au          12.55241232762287       16.61186335477390        9.95147332242481
Au           1.66777160848495       11.72325130342625        9.61914268285417
Au          -1.02337924636859       12.76242035065350        7.83815940031003
Au          10.14228704784496       10.22122661369215       12.04630710863363
Au          14.90575145382562       12.70210131855193       19.44299342115058
Au           4.57352664222720       15.88138516961892       14.07074075953823
Au          17.47803183460006       12.06407741036278       14.78382788470319
Au          17.10274803870518       11.50534707816066       17.66424469286367
S            7.83804697946826       10.28085338924400       11.58661325169853
S           14.85808905188985       16.15055317443477       10.04635941830621
S            5.67646360126961       17.47610186009130        6.50023806493247
S           10.25623098953132       17.11135153419802        9.68354772728477
S           11.42449846531495       15.22906982753485       15.93001179228131
S           12.55740638354433       12.47700195707209       19.58035603754062
S            6.53113437825023       15.37571926337409       15.29735037423491
S           18.10337187767195       13.99008592729379       13.54177332154571
S            3.89414691413388       11.43488915452501        8.80635824473019
S           -1.24085011852231       13.93500767566053        5.78574290446657
S           -0.72801386315896       11.51676519275948        9.81646492345057
S            1.01070674162480       18.07846003152499        6.73869990689932
S           12.48696996595878       10.01307197316183       11.98324978749312
S           17.25822254561181       12.76630518428920       19.67672972739033
S           17.13628925007378        9.96508383760241       15.84749978997850
S            2.40392964402289       16.27652681669742       13.20623106539500
C            6.03886140876912       15.97136928631982        5.56318673341066
H            5.44939490803814       15.13559588836768        5.93972657256723
H            7.08918093584754       15.74451274709324        5.76572324695013
C           15.25399461257251       15.54122057684025        8.38016859687844
H           15.37775432354382       14.45929328953650        8.40908707727400
H           16.21911498965295       15.99531322763694        8.14860031202121
C            0.56859467214412       19.50499368063510        5.68903183657445
H           -0.12516380227221       20.11361784959967        6.26926330006627
H            0.04400821475969       19.12666635886524        4.81177994478677
C           11.83119986930570       16.90614070583593       16.49671902611313
H           11.09458061366737       17.56940491597135       16.04146897895770
H           12.81925993417130       17.17830232798016       16.12745317186446
C           12.13903892661609       13.39272527009975       21.09421985498526
H           11.12883430929060       13.08137521805430       21.35819255532630
H           12.14136610831781       14.46385560848679       20.89797890696004
C            7.29453955703663       16.94072279842158       15.81935301746165
H            8.20409945709086       17.10384183388143       15.23901047068036
H            7.57367680751824       16.78620070526264       16.86327099326231
C           -1.01599146478894        9.81570733014040        9.24727594451920
H           -2.08598988507893        9.72582762339694        9.05989711457265
H           -0.74013038661072        9.16373745504693       10.07590564215357
C            6.95117746484586       10.17605165056474       13.16624788912928
H            5.91780205763680       10.44846418678793       12.94463310499869
H            7.35155106846071       10.89611214921985       13.87746352276547
C           17.50133753539565       11.46713559832556       20.92952902580712
H           17.15982040522521       11.87748251050618       21.88019195255092
H           18.57505677881487       11.28578992930322       20.98104163616285
C           14.23781619966003       13.82733757937766       22.39402016584978
H           14.37646652400474       14.73839560634546       21.82266686283036
C           15.17405743358688       13.46522945545820       23.35212630957757
H           16.04529516163322       14.08905029378097       23.51693427097667
C           14.99171337708384       12.31019032362603       24.10055452795461
H           15.72314400097797       12.02550517904583       24.84805023248022
C           13.86727642323252       11.52194219834536       23.89068601913243
H           13.71924536656010       10.62114979060342       24.47555095239986
C           12.93297286326523       11.88077457270034       22.92902124473271
H           12.06091115892298       11.25789041714671       22.76170785821256
C           13.11085875525659       13.03706750342623       22.17268100704693
C           10.58614033636001       17.28631107386243       18.63700924260539
H            9.68898036019283       17.47081418065002       18.05560241180347
C           10.54125863260979       17.35279917992661       20.02202384027822
H            9.60691895206476       17.58566244071380       20.52035082111652
C           11.69073429656387       17.13065790169124       20.76888546025122
H           11.65593690762966       17.18843363574108       21.85067872010780
C           12.88830408785420       16.84553717203744       20.12470818507509
H           13.79299592196387       16.68959467341752       20.70171229748594
C           12.93482703615260       16.77418095145566       18.74037233774766
H           13.87366110509133       16.55746128489700       18.24035060960777
C           11.78270085536876       16.99511946631608       17.98536784660921
C            5.55983272257797       16.30897889109137        1.31519188328034
H            5.46741432378821       16.37976636065051        0.23737833658542
C            5.88342773296369       17.43387395374337        2.06297000707244
H            6.03250253847510       18.38836155132810        1.57048291853918
C            6.02722534823124       17.33928195631431        3.43865657111808
H            6.28822906267521       18.21673304198010        4.01992465804646
C            5.83694341069914       16.12130578361055        4.08492096555262
C            5.49718596113199       14.99898880568423        3.33173135599102
H            5.35496264738993       14.04374480093063        3.82473932870788
C            5.36658582944882       15.09049386493292        1.95363179431237
H            5.11370691120963       14.20683066053358        1.37808546557765
C           -0.22116149532836        9.49553056429791        8.02010453108179
C            1.06111449963259        8.96474043916600        8.13317355795595
H            1.44052786901902        8.68321986765469        9.10817864217566
C            1.85050606017597        8.78614435369783        7.00544601689685
H            2.85182543804459        8.38418218954887        7.11140836539400
C            1.36399224372247        9.13076425297114        5.75223716124888
H            1.98567852744639        9.00666497448692        4.87302222751109
C            0.07280544520720        9.62747998587352        5.62773512942028
H           -0.32093240766545        9.88163832760496        4.64990885212455
C           -0.71701740953571        9.80369354910924        6.75492851366282
H           -1.73196517248711       10.16832193496217        6.64769451658747
C           18.75992681543516       13.26175109984765       12.01026513077987
H           19.70646211625803       12.78025585098486       12.25583275353775
H           18.94600193546486       14.09620983119710       11.33371153293334
C            9.95082153597279       17.00787944143908        7.89439902021492
H            8.96675605097309       16.56437432731574        7.74532221287614
H           10.69024056377578       16.35166715927880        7.43457146553718
C           -3.03348892375486       14.04287231165518        5.52836096776402
H           -3.18286985624838       14.32100585433318        4.48397563190782
H           -3.46311485501815       14.81514350018867        6.16635687669563
C            3.99620044500111       21.77969783100235        4.48958390847380
H            4.85856364790786       22.35803220460016        4.17868798862304
C            3.15640483696364       22.25943540718537        5.48543276427849
H            3.36228041976554       23.21314897572713        5.95821520518469
C            2.04496478746648       21.52523843129795        5.87622416968692
H            1.38291541901022       21.91949851400036        6.63909668003984
C            1.76264303133661       20.30127637312196        5.27522523003910
C            2.60338603156907       19.83332421676361        4.26350937386943
H            2.36753005381394       18.90576582775617        3.75332893201781
C            3.71533869340980       20.56599094077459        3.87693136438176
H            4.35777763300570       20.19123985424377        3.08795420809018
C           17.35153256291871        9.23247454022281       19.79315763541118
H           18.39896250620550        9.31676849067987       19.52718957500854
C           16.75757769472968       10.21325000574513       20.58557644062515
C           15.42846460524090       10.05157970067491       20.97118941990726
H           14.96970845192415       10.77342470087768       21.63493513403876
C           14.68980357131415        8.96536272740158       20.52413227950284
H           13.65160274913328        8.86319303580606       20.81944005741364
C           15.27641483895374        8.01667933705307       19.69762081836985
H           14.69545254841487        7.17687188575827       19.33438352848647
C           16.61455857398342        8.14171826571294       19.35109093215074
H           17.08747686111608        7.39189699181858       18.72683836088888
C           -3.52150957156642       11.66375514482491        4.91161397133773
H           -3.07632447866238       11.84881001220110        3.93996007868487
C           -3.61520611646445       12.70040519991878        5.83718947771147
C           -4.17697530422616       12.45143941589837        7.08865126613517
H           -4.26562844129992       13.25932825433040        7.80854180245133