666
 energy: -997.434860350879 gnorm: 0.000686136649 xtb: 6.5.1 (579679a)
Au          12.28172282780541        5.08636328510048       30.10333368277849
Au          11.15049539700308        3.30356076513043       27.90024707611889
Au           8.94384315519392        5.20066417941477       27.85229588339670
Au           6.94223997190880        3.21500972529183       25.20521812552181
Au           6.94370496374388        6.29087167284063       25.20304926989622
Au           5.80140371633279        5.86267025680445       27.78523606439267
Au           4.36919297627880        5.17761376543288       25.51770297957345
Au           4.72695170492597        7.92690223623134       26.03478306238377
Au           4.29112638154595        9.98337751234521       24.04668605991363
Au           2.08864101762821        7.84616463976804       27.15267658268536
Au           4.80059071509831       10.67242057982953       26.67903595418568
Au           6.94816196293790       12.61530030683943       25.19802657572999
Au           5.68897151364054       12.49144039538702       29.92599646622325
Au           6.94583263998049        9.56032618397767       25.20070532793981
Au           5.38203216647983        8.65174885319326       29.00282771922272
Au           7.28393973963769       10.58436094967922       28.39765418523097
Au           6.33733866457741       10.66648330689308       32.27848611135427
Au           7.67068913503294        8.69610166822111       30.56449515353379
Au           5.35098666414082        7.05438402249952       31.55824390136038
Au           7.99641649807006        7.89308626214838       27.79020472169574
Au          10.73673285973570        7.18382712302991       26.98886905112220
Au          10.07937836955676        7.02419655882717       29.69507730049845
Au          12.39083808603690        8.81248954349408       28.95148527775337
C           16.96065667024903        9.92397820811778       35.05064471288450
H           17.40406148854134       10.12921578373702       36.02578630062860
H           17.76851460067948        9.76883761334444       34.33535108410504
H           16.38407674646810       10.79914024673323       34.75151837974123
C           14.95431546880535        8.96281770108814       36.17461129960439
H           15.39023315728729        9.24997058260600       37.13194595012254
H           14.31701578744558        9.77531548312295       35.82417375202172
H           14.33561392587939        8.07961209643428       36.32941295930240
C           16.93182170057876        7.50462632724632       35.63555038358519
H           17.41930877907991        7.76380733670631       36.57583711731061
H           16.32741384614746        6.61264145029808       35.79719960371578
H           17.69918724913029        7.27442074901746       34.89604723534775
C           11.34998668192160        7.42258500283144       36.43651369233786
H           12.24386432916937        6.91411660971234       36.80032677247684
H           11.65235946430555        8.12116647024513       35.65701652566371
H           10.91584761805543        7.98313163354194       37.26470740109819
C           11.00409316966245        5.65104056088496       34.70505191433858
H           11.99254726412475        5.27956505750625       34.97718236217195
H           10.39050596471936        4.80695380153995       34.39066100091053
H           11.10186468719720        6.33328666786061       33.85894228744858
C           10.05580453216768        5.38346854849347       37.02520924344041
H           10.98477598431682        4.94702463572728       37.39360835974638
H            9.55708684799814        5.89132851920522       37.85112858116679
H            9.41405534988870        4.57514240799491       36.67678471086936
C           14.24881412855439       12.71555000404350       33.48394463197545
H           14.83628527304620       13.63376423464627       33.51972223240264
H           13.79069019179333       12.56321343823243       34.46143686848036
H           14.92834080083263       11.88896049753644       33.27781376890946
C            7.17127663079553       17.72006416388854       19.51847746414781
H            7.89460095770610       17.81001003217298       20.32876808234168
H            7.41597199845885       16.83269703435389       18.93468875354825
H            7.26105268858074       18.59633760848264       18.87554797960746
C           12.33360961246895       14.08318479996623       32.67720790747960
H           12.97825538019985       14.95818834220481       32.76658408911271
H           11.61784601957454       14.26984694578955       31.87728259187437
H           11.78573873944273       13.95735473571546       33.61160033123321
C           13.88332442276990       12.98031948407153       31.02790291641059
H           14.55264270913820       13.84098476742118       31.04013348456466
H           14.46669535418049       12.08525353516367       30.80881534058118
H           13.15447238884717       13.11940623300975       30.22971055029599
C            7.23969110699793       16.44212042495891       36.87337916185309
H            6.53904672984881       15.64121514719046       37.11083681529826
H            8.25139475422754       16.03902808989274       36.90777519623943
H            7.15273318276953       17.21925747078620       37.63323264818322
C            7.94603261763453       18.12117000645943       35.13673918313001
H            7.89744413814748       18.92443330526732       35.87255727995907
H            8.96059150150359       17.72417730192349       35.12676490240870
H            7.72606533923853       18.53738648174704       34.15322047040098
C            5.53058676342938       17.66641682169990       35.53422337262995
H            4.77104822053670       16.93269250014354       35.80470960564730
H            5.52278605543836       18.45594384111575       36.28665510763348
H            5.27048618428165       18.11119453037692       34.57338632649457
C            2.78650212728879       18.49916809476045       25.85972232160633
H            2.68382360426575       19.41376444654323       25.27486742782131
H            1.79779939240307       18.05974703345235       25.99562203033442
H            3.18608990955937       18.76442828037952       26.83785112457851
C           13.65362705923031       15.06578675492330       23.84824172594180
H           12.97727465813708       14.43829961438304       23.26696854064894
H           13.05653380035291       15.66756314218314       24.53311136961527
H           14.18446831182330       15.73478778937645       23.17043488356838
C           15.56702212312042       15.07553125022470       25.48265093545365
H           16.17820286508679       15.71014966953358       24.84012775117215
H           14.98798725283323       15.71947430069841       26.14362025260391
H           16.22672696731053       14.45605697331483       26.09072306964003
C           15.53112511441213       13.43417063377359       23.61585480382177
H           14.92536068985622       12.84043577567676       22.93168103825689
H           16.10191803438576       14.15073020390021       23.02398079269052
H           16.23310805279699       12.77615884391204       24.12845717029667
C            5.12703718480671       18.09272411266247       25.02694278216977
H            5.11664587497523       19.02301175996854       24.45825798752523
H            5.53075706684116       18.29539646598765       26.01897886044526
H            5.78343809968803       17.38237205222675       24.52409783532874
C           16.49062553063029       -1.08210487834498       29.26326406255263
H           16.91474820080450       -0.10870738941498       29.01568194695172
H           17.29722329242225       -1.81501127594597       29.29717426023128
H           15.79829859511396       -1.36920533907864       28.47234407043636
C           16.82676568932763       -0.68260075555849       31.69896759902570
H           17.30329150080390        0.27659053986099       31.49554889569720
H           16.37496643017628       -0.65294014467786       32.69061915288390
H           17.59969936128151       -1.45209579341662       31.70114378952830
C           15.16144583945415       -2.38445317249794       30.95865045159320
H           15.94422848839345       -3.13940374529845       31.03721856817678
H           14.62822817905233       -2.33344825616104       31.90833903687449
H           14.46024369159662       -2.69491990026380       30.18446211318808
C           10.32355118014900       -1.64215095475860       31.01541931191757
H           11.08219603339366       -0.86566990406663       30.91535906494993
H            9.63790746725682       -1.36612839855133       31.81625342481550
H           10.81859159533451       -2.57054374724908       31.30280086972923
C           10.57109332769114       -2.42254654513574       28.66349414849093
H           11.29608654830237       -1.66462208071056       28.36763542373260
H           11.10847362038758       -3.26454915055569       29.10095229546539
H           10.05946561557782       -2.77907477361829       27.76998995762061
C            8.43707765200139       -2.85468148700776       29.90680420714440
H            7.91527857287806       -3.04674706710412       28.96922263274947
H            8.83490009351133       -3.79769106375534       30.28309674668666
H            7.72180028913253       -2.46301224294128       30.63020341620240
C           10.57975107241828       -2.59231651174899       22.86980571588349
H           11.00490012468300       -2.83070410741203       23.84418300388579
H           10.32288770089654       -3.52672454048647       22.36987191021775
H           11.33720246146487       -2.07730975819414       22.27802175647450
C            8.28985468860551       -2.41234688257744       23.89689612408035
H            8.70799110112492       -2.63893060933104       24.87761688089716
H            7.42139097058303       -1.76809276843368       24.03200335024809
H            7.96480355175635       -3.34495291637659       23.43472665096071
C            8.72840406292830       -1.51043806542661       21.60939361310602
H            9.43085784170180       -0.99472011171182       20.95405090790696
H            8.50587586511990       -2.48310697696550       21.16942942797451
H            7.80263789941036       -0.93809683237830       21.65698280253987
C            1.22065487516631        0.08870088397837       30.43381383372134
H            0.34160762868996       -0.54186437680926       30.29496648586168
H            2.09100267847908       -0.46836552341768       30.08622503643426
H            1.33208625427724        0.29263652626280       31.49893804402925
C            0.94485930024037        1.04269344851315       28.14688141331870
H            0.86670695505350        1.94592612277479       27.54229436054665
H            1.83127766777449        0.49397455794733       27.83128630680604
H            0.06898316676765        0.41931543361994       27.96482838997640
C           -0.26209945719470        2.05975006599705       30.10345417634285
H           -0.50952130008508        2.91814636698310       29.47978184705276
H           -1.08543794819673        1.34749532048800       30.04057501997757
H           -0.16878430784685        2.39529292449407       31.13652862361808
C           -2.67884771873904        2.21003533130246       23.48935423747972
H           -3.37299207961584        3.03267930220261       23.66192037745135
H           -2.22303253014324        2.33654050306664       22.50779294059118
H           -3.24258835699962        1.27663445660625       23.47965644020221
C            5.43417722790910       18.83002142899595       20.95613071973387
H            6.12641444609350       18.89088624754861       21.79528730875319
H            5.52178438197138       19.74646979571513       20.37162962850345
H            4.41900745874531       18.76436443268645       21.34775466791878
C            0.26395749756038       14.42906295302645       30.40578630579687
H            0.84137966050195       14.59708757528225       29.49662043889782
H           -0.67207768244143       13.93419441664229       30.14742589721597
H            0.02390274903193       15.39981022596827       30.84122734333800
C           -2.30910012909472        1.71486160025249       25.89685067789445
H           -1.58654265123430        1.53916392264040       26.69270800223187
H           -3.02594377777436        2.46564250507948       26.23002346665755
H           -2.84397602988886        0.78105532760452       25.71978646021971
C           -0.52954600528563        1.14111009853138       24.23034219744666
H           -0.04354373883963        1.42688230048461       23.29690923704094
H           -0.96668893115282        0.14981328663774       24.10550479690644
C            0.21387170401251       13.37489560272462       32.67015705656636
H           -0.67694217595720       12.80033982405686       32.41540527124115
H            0.77448843163195       12.82729829387475       33.42744974831424
H           -0.09526537875412       14.33194623004103       33.09140642953268
C           15.77942480350430       -1.01386831936879       30.62657928876939
C           14.66475542293944        0.02145553786999       30.55649443329332
C           14.60342524304350        1.13416425459004       31.39306837275662
H           15.36815564927142        1.31179697461760       32.13897929127869
C           13.56682352766295        2.05130204211023       31.29672152141445
H           13.54376810581873        2.90945544516926       31.95820607574271
C           12.56026930820947        1.88064241133396       30.35521812727744
C           12.60439135997985        0.76785686312738       29.52130265632775
H           11.82087414524919        0.61910602594571       28.78852311157392
C           13.64224191859828       -0.14246052193863       29.61927095499722
H           13.64593388341099       -0.99265502728052       28.94677938148537
C            9.57737803361635       -1.84436208522196       29.68780425696442
C            8.97418190945776       -0.54477610910385       29.16776172875690
C            8.76364077490865        0.56559643526318       29.98545159430690
H            9.03021919761879        0.54172305318823       31.03469629108603
C            8.22727049796263        1.74058814350464       29.48163508945198
H            8.09221116070606        2.59580875631389       30.13351282953124
C            6.90206925840805        6.71092163739238       34.34797776127740
H            6.12668996623448        6.04310167321705       33.99300656019481
C            7.88538681844905        1.83969316006548       28.13667757958208
C            8.04720850453758        0.72666266673771       27.32080628557045
H            7.76924705647926        0.77984121590358       26.27477679406262
C            8.57768539700078       -0.44549216682496       27.83245664409434
H            8.69352221524147       -1.28819752936086       27.16180764428946
C            9.32837814779910       -1.70674208957953       23.00799682797190
C            9.71580274364789       -0.38763982109266       23.66088314030443
C           10.37348145683584       -0.39479191751768       24.89395021137334
H           10.58892540222934       -1.33290765710293       25.39296940534827
C           10.77508270621883        0.77965280146667       25.50602050175848
H           11.28125474990802        0.74192662540948       26.46319538936575
C           10.53922925180606        2.00877700597853       24.89703758507273
C            9.86350007114058        2.02701775949243       23.68119705579481
H            9.67864850841730        2.97093141907321       23.18483061192271
C            9.45089181674660        0.84967422044044       23.07787877212875
H            8.92850649896491        0.92516080956134       22.13286564728163
C            1.04596760842090        1.39245743722446       29.64174912934887
C            2.21119843134770        2.35450394288539       29.83740142726900
C            3.39467628413634        1.98921205522055       30.47657574671426
H            3.52303914274236        0.99323977535796       30.88202751975281
C            4.44958369207067        2.88228519398902       30.60459174790515
H            5.36851162214647        2.57190967859109       31.08787714719734
C            4.34215850891154        4.17298616958645       30.10270008390400
C            3.16281751618459        4.55450385655088       29.47344420750056
H            3.06193063007751        5.55978103736179       29.08237075289616
C            2.12022624148801        3.65531742758512       29.33567496667025
H            1.22610870823491        3.98275891080680       28.81764176683475
C           -1.61663563524367        2.16550322847159       24.60243253307032
C           -0.94366542149748        3.52368328017222       24.75169449826735
C            4.75675227927964       17.61731334454944       18.89060021750017
H            4.96762788562799       16.80066162470453       18.20001834618272
H            3.72719828265743       17.53095727352650       19.23888295583016
H            4.85273686037504       18.55692949601929       18.34515160477218
C           -0.62323385847464        4.07313659664712       25.99226362112392
H           -0.88554659846379        3.56094015784110       26.90960147410284
C            0.04584598948537        5.28375309279910       26.09794003955404
H            0.28961862444250        5.67818036908155       27.07791486673119
C            3.15424235889714       17.30749963877866       23.70920714445590
H            3.05886345037343       18.27578253133798       23.21634888948883
H            3.81925670910318       16.68713450185971       23.10927901205924
H            2.16784371205160       16.84377378288718       23.73992851137726
C            0.41421624421668        5.98786080090293       24.95899977928449
C            0.08225046357140        5.45672713230495       23.71641617332386
H            0.34181225980689        6.00299941833977       22.82018434640521
C           -0.57401631965298        4.24409244968696       23.61362028659265
H           -0.79368951075145        3.86467191885996       22.62255597460635
C           16.06564264494097        8.68067655239349       35.14830260272511
C           15.42891223731265        8.30832833829411       33.81531360091121
C           15.61341728058938        9.05231397152506       32.65043088413795
H           16.22877378374264        9.94320262771461       32.65082731256405
C           15.02407554002685        8.67396817282851       31.45401080461568
H           15.18339698509616        9.26989944070760       30.56301951974044
C           14.24071594253514        7.52706191970166       31.38445123062805
C           14.04353101816891        6.77995192389268       32.53955055462443
H           13.43507329600806        5.88370462486239       32.50295408986481
C           14.62332568961395        7.16999269995412       33.73475658246603
H           14.44178976714893        6.56359372805306       34.61502628084493
C           13.17941808083300       12.82996717756597       32.38924386629139
C           12.28038905214965       11.60320352884314       32.32169226133392
C           11.18686871941390       11.60995806097301       31.45621809388573
H           10.96735312936418       12.48525430337642       30.85777234319568
C           10.36580128583010       10.50671558177088       31.32067328334855
H            9.52944347161369       10.55335385601821       30.63459674526887
C            8.03725278657559        6.18709212898444       34.93786624504675
H            8.12517959336723        5.10943403001451       35.01416995883989
C           10.61086484897429        9.34227150325016       32.04056055454095
C           11.70229066923831        9.32437589988375       32.90482032603461
H           11.92112693733809        8.42453443224220       33.46594015527184
C           12.51608856533797       10.43750505645690       33.04756520676857
H           13.35035506176096       10.36982923305605       33.73428780356686
C           14.65070702531292       14.18613869871116       24.62351885968745
C           13.85355555721163       13.24596650754370       25.51825926718311
C           13.11926249979700       13.77268920042685       26.58273354943333
H           13.14141697307246       14.83658079114707       26.78979357574491
C           12.33794318053822       12.96316257031555       27.39012519550015
H           11.76487616875721       13.39599270811703       28.20101775781656
C           12.27423248753661       11.59384502274911       27.15642727338473
C           13.01144731861533       11.05363536866600       26.11089947611104
H           12.97473428480489        9.98742024545055       25.91816415663945
C           13.78586823427527       11.87054043393501       25.30192985508778
H           14.33204960516625       11.40647586866841       24.48994611458581
C            5.73830842736564       17.60909545289465       20.07064290308839
C            5.64045002015729       16.33433157759920       20.89788073507224
C           10.35723509313918        6.38429818162972       35.89633262451338
C            6.44693171925549       16.18963862530541       22.02933024406307
H            7.11564066859595       16.98804722796718       22.32961697501127
C            6.43181902296542       15.02950194822973       22.78441609478430
H            7.07418455059597       14.94142505369363       23.65252154378238
C            5.60758964952866       13.97073179944735       22.42346037719723
C            4.78864917231635       14.10602761692617       21.30849654020691
H            4.15161000701213       13.28107851695001       21.01588375839056
C            4.80333041229579       15.27228469004485       20.56023603363551
H            4.15527521430417       15.32566929052420       19.69427066939705
C            3.70751895918417       17.50768606011179       25.12726662503388
C            8.87888429521409        8.39120256957910       35.29328370026305
H            9.62988805460396        9.08423960339971       35.65153489775834
C            3.78622649305471       16.20210837895051       25.90604976684910
C            4.09059551555757       16.21978432641477       27.26967268965526
H            4.26079366755351       17.16107402632693       27.78007913754309
C            6.76422264559904        8.08462065327302       34.17268073238453
C            4.18725339353721       15.05016876465738       28.00460903556344
H            4.43167187339408       15.09441206382294       29.05970905905082
C            3.97461818957121       13.81604401065857       27.39665903026681
C            3.66669466064047       13.78956207578634       26.04049732560165
H            3.48019686002380       12.84268980513638       25.54990361644896
C            3.58903970245996       14.96093589031766       25.30575275276249
H            3.37071903751886       14.87798602924544       24.24917056984499
C            9.06595931983601        7.01431534544437       35.39415426691173
C            1.07265293594429       13.60037707293497       31.41318632869911
C            1.48551909711941       12.24427517109340       30.85647573110682
C            1.03821321137592       11.76162192523902       29.62928976620518
H            0.36638391491377       12.34601675895260       29.01406147310522
C            1.45196704824058       10.53112433685655       29.14235920664113
H            1.10064534610620       10.19401121603496       28.17373084876020
C            2.33110974375451        9.74232970047448       29.87125633457730
C            2.75858150091025       10.19853107813914       31.11619686315838
H            3.42103601145731        9.58298197566489       31.71142976397243
C            2.34215591565811       11.42634792877580       31.59853135764361
H            2.69969796768900       11.74429612596395       32.57143566067496
C            6.92420339130401       17.02388015506977       35.48341088378080
C            7.01655427946131       15.90803191889466       34.45064937936895
C            5.93976456969689       15.52660129914071       33.65251543418227
H            4.97984056978253       16.02064796532894       33.73539392391267
C            6.06131020138323       14.49986067204209       32.72781830299281
H            5.21177187065506       14.22318714392162       32.11556522670896
C            7.26045395199736       13.81937068921199       32.58300099385059
C            7.74446877170247        8.91868423669231       34.69496788429497
H            7.64122275381535        9.99388712946871       34.60524710858466
C            8.34622237539230       14.18864160243796       33.37071391101532
H            9.28728105196590       13.66198610685809       33.26493985771157
C            8.22273561041346       15.22121569606158       34.28560954055362
H            9.08775836288159       15.48405245193225       34.88409116795766
S           13.62288868298318        7.01550549046240       29.83339673045998
S           11.21467939417575        2.99917142839367       30.24680783505746
S            7.26719536661373        3.35373459795487       27.52216895339325
S            5.75488055924203        5.21027533161795       30.17843312312301
S           11.19031775264162       10.64513988313668       28.15717632364827
S            9.59325095348296        7.92493908216433       31.95271509552675
S            7.50536438827073       12.52543898586923       31.42843540057768
S            5.40136037026233        8.71648280069588       33.26897209090031
S            2.92247112947939        8.19874529633034       29.30853862322706
S            1.23680977578086        7.52543309046796       25.00376456847437
S            5.57288812293023       12.46942576306277       23.31514371821596
S           11.17721672251951        3.48723377093652       25.55689982057406
S            3.99017602121944       12.33519993072588       28.31135159738021
H            0.22714393937300        1.09459101559814       25.01389776722457
C            2.33063420965716       14.40547776189590       31.78480269769209
H            2.89004551160555       13.91513194501331       32.58063385574922
H            2.97842943350217       14.50661083341804       30.91337662671977
H            2.05219092185516       15.40230172700467       32.12798736898128
Au           1.60575351429051        5.08603481218945       20.30416833224371
Au           2.73422450460931        3.30428502107352       22.51029690497401
Au           4.94323150367804        5.19957706908793       22.55491360672586
Au           8.08657161136503        5.85732466655124       22.62113895073072
Au           9.51821099383858        5.17341174599678       24.88979571783404
Au           9.16448361235800        7.92282863030765       24.36801623130582
Au           9.60223416781481        9.98164551382127       26.35393745545769
Au          11.80147399479569        7.83686770739204       23.25090936559838
Au           9.09382249828168       10.66746812424979       23.71969876542571
Au           8.20761479712040       12.48239964680872       20.47023617874380
Au           8.50981947944319        8.64358022341387       21.39898669714357
Au           6.60970435427492       10.58008761999659       22.00061029610183
Au           7.55707031467854       10.65442692977138       18.12131831706552
Au           6.22106846906389        8.68912417937233       19.83696023907466
Au           8.53854045016927        7.04241719365922       18.84626996734676
Au           5.89431045314038        7.88988934225343       22.61342664104217
Au           3.15326070473585        7.18632718719354       23.41514509572643
Au           3.80929684402520        7.02148900774697       20.70921760723162
Au           1.50150165650043        8.81336928271720       21.45053792549388
C           -3.06710137072633        9.92162112916736       15.34929266965004
H           -3.51023246949513       10.12590191321601       14.37382517151808
H           -3.87516534075539        9.76865608157674       16.06482171249109
H           -2.48938804475453       10.79650230670057       15.64705008065104
C           -1.06198031498138        8.95610477276565       14.22689455927703
H           -1.49749435370415        9.24232941766307       13.26909776098380
H           -0.42363496180981        9.76831844509986       14.57608450116131
H           -0.44442269370211        8.07185561815346       14.07349166953284
C           -3.04139129023869        7.50132859712410       14.76817038903357
H           -3.52852447760020        7.75967351802347       13.82746968569532
H           -2.43813669161393        6.60831065803107       14.60792411658431
H           -3.80906901766030        7.27326646676221       15.50801354041361
C            2.54026386851528        7.41076116277223       13.96742570392433
H            1.64574926076811        6.90287518190152       13.60436570997232
H            2.23875343496504        8.11095191337747       14.74581252875054
H            2.97516212189532        7.96945217953888       13.13837675862521
C            2.88382756639162        5.64153564799520       15.70171904953704
H            1.89490929242136        5.27088488438523       15.43015088677422
H            3.49632934490281        4.79717391755700       16.01748476539444
H            2.78690242371711        6.32526654757474       16.54672761151265
C            3.83180988269245        5.36903172861561       13.38200751518406
H            2.90227666147033        4.93322005378973       13.01427778846118
H            4.33121447945118        5.87492435120877       12.55529614703329
H            4.47248915949025        4.56042117380960       13.73173745611119
C           -0.35177993305931       12.71227680430471       16.91182086647833
H           -0.93806574333526       13.63119409968760       16.87465254411519
H            0.10625489200954       12.55794093811266       15.93460051659798
H           -1.03239416235575       11.88686181688964       17.11906453801681
C            6.73290040778028       17.72927027052699       30.86936329162247