716
 energy: -1069.282903845077 gnorm: 0.000170790420 xtb: 6.5.1 (579679a)
Au          16.31742020003914       14.81625928360820        9.24873197641642
Au          16.72766073008476       18.56784436623154        9.45521266212527
Au          18.71713172524262       16.39671310414885        8.67838344372064
Au          17.62530857794636       16.74198554639396       11.52790747984610
Au          16.04011130114258       18.17498943414865       13.35847468264023
Au          13.08008896628784       16.35623879627168       14.40663566195531
Au          11.23114543125123       14.80860368489996       11.84410112422949
Au          12.37783401181875       16.32419622747820        8.77217371009768
Au          15.39937832239625       15.01539523810770       13.09091296645187
Au          17.70401867261778       16.72506592787727       15.37715203296944
Au          20.18651097290388       18.68912369357641       13.92068490575673
Au          20.57379989724584       17.00117942338870       10.68294269200807
Au          17.99593496214383       19.46480142527578       11.86580418110041
Au          21.01144637267586       21.27459019765726       10.89020935274513
Au          22.83691441594407       19.75237434123042        7.87157202131212
Au          21.25606662172716       17.30035729082980        7.90704338747973
Au          18.84239159145075       13.62260987224082        8.52319542326457
Au          20.80269403838625       11.19898769536104       10.54136574931615
Au          21.60351711890051       12.72885175524219       13.56379486878155
Au          19.59960046213200       15.83826630460033       13.27429362489129
Au          17.77172486054332       14.01433609605712       11.79367170644545
Au          16.60767111402435       11.74387158181566        9.97013403737903
Au          19.62953113176988       19.20533604736898        9.13985379337143
Au          16.68946747319945       21.65901552137479        9.95510607999351
S           14.04254190404432       18.46914138223265       14.75461018597128
S           12.00267643709218       14.28750485811861       14.00900710833828
S           10.27609883934171       15.56764111751936        9.85044015239368
S           16.72358943351313       14.60373546167470       15.14444859126123
S           18.61729010171872       18.87219604081296       15.66202473826403
S           21.70205864886013       18.79790002309028       12.13639600056737
S           18.99038989072338       21.70710102954283       12.08752359181674
S           22.92231129182439       21.45969298795687        9.48282034758712
S           23.01436880548209       18.03002870219046        6.27642948055390
S           19.56274750495143       11.27151010515507        8.54583615236687
S           22.12440922287070       10.74124799875437       12.44203819392916
S           21.38718335251434       14.76264473317072       14.70580099463880
S           18.19610629175531       11.48172562231570       11.70232075835741
S           18.77620193899461       21.53014358527498        8.86545057631246
C           14.51308805554612       18.60756783298805       16.42663047938477
C           13.84546261748483       17.91793836458596       17.43365051580576
H           13.06956992960644       17.20646405853307       17.17561347275994
C           14.15403031327918       18.14655069081923       18.76293269337857
H           13.60264931732658       17.59852801876130       19.51843452684889
C           15.13932305519791       19.06436813648219       19.13496900125937
C           15.82320318927464       19.72295757989919       18.11479901696358
H           16.60941026706548       20.43078782250301       18.34118090484606
C           15.51320600046452       19.50623980464758       16.78064869510392
H           16.05313780544773       20.04334100105535       16.01024510318344
C           15.41071917743561       19.32322103716132       20.61143650839341
C           14.10704597838231       19.79751091093683       21.27926783876069
H           13.74628120960166       20.70288496422955       20.79041438269231
H           13.33188375657576       19.03483630286361       21.21193061904273
H           14.28413810894251       20.01569936885313       22.33277797974994
C           16.47950280085637       20.40190634655049       20.83590066877601
H           16.17633725464084       21.34970401757378       20.39073838419928
H           16.61939435877396       20.55841685877990       21.90619292628059
H           17.43650944614599       20.10038655093853       20.41123367415674
C           15.88757125188169       18.02105603291454       21.27699590430473
H           15.10841479358057       17.26095128387415       21.24493179453091
H           16.76649075132231       17.63538838355916       20.76022723363978
H           16.14751057521419       18.20230587316387       22.32023626757228
C           10.55756319325320       14.33268530791748       14.99285536729707
C            9.47430362793747       13.52206233053790       14.66660962098328
H            9.50624748207189       12.91938295733124       13.76691905107126
C            8.36383811181448       13.47336721803758       15.49348113973760
H            7.54240044646767       12.82432652879207       15.21253262468916
C            8.28989660752091       14.23454887951941       16.66403462249542
C            9.36783730490187       15.06606987415630       16.95927496983242
H            9.35886012124223       15.70027402811330       17.83631779620016
C           10.48801726860622       15.10768283111919       16.14277049728184
H           11.31901558839351       15.75004770336360       16.40880789620063
C            7.07511224334656       14.10795051426386       17.57411136028654
C            6.99564745444070       12.65712176769014       18.08363892897099
H            7.90240555598571       12.40410325289322       18.63389305424687
H            6.13978332089831       12.53914611652440       18.74880066632979
H            6.88703121835008       11.95858873112013       17.25449979847416
C            7.15216750690324       15.04200454738167       18.79032594079823
H            8.02078266870006       14.81068801346805       19.40733597896569
H            7.20380355555307       16.08523526905865       18.47831113228399
H            6.25867948840507       14.91405324753627       19.40249302247311
C            5.79730248260428       14.44712661210508       16.78778518712208
H            5.64935366198345       13.75039049358376       15.96383499777774
H            4.92812225341600       14.38953797563248       17.44368140659959
H            5.86213244594564       15.45785279028094       16.38449777180730
C            9.62540652089358       14.20823543520777        8.98447417076464
C            9.26697203229024       13.02872706627173        9.62618261692332
H            9.47830033125146       12.90754986535074       10.68239512658429
C            8.62266144165998       12.01409917834104        8.93358954037273
H            8.36246495608284       11.11730668250581        9.48136790940014
C            8.31836377663111       12.14265222597381        7.58038982288099
C            8.70205301172293       13.32532351397773        6.94064231500168
H            8.48825801074874       13.47241980430032        5.88877867880798
C            9.35212888333544       14.34065992388383        7.62481332711692
H            9.62319876639965       15.25316802469939        7.10878820391291
C            7.57589028286005       11.06986856709887        6.79541926127520
C            8.38002068764902       10.68769981449092        5.54062220190748
H            8.51389254754274       11.54288268568859        4.87899009751671
H            9.36290968681747       10.31658787502507        5.83212008507922
H            7.85994114055715        9.90490130822296        4.98778136698577
C            6.20573644104405       11.63600243795674        6.38016050195134
H            6.32734989178725       12.50486454679854        5.73380043324035
H            5.63386089472225       10.88085654867445        5.84018058505422
H            5.64174537620744       11.93748629629909        7.26342189060725
C            7.35101971717758        9.79404180265117        7.61936592732157
H            8.30210928928244        9.37756642606565        7.95232175783744
H            6.72397866235807        9.99237669937674        8.48876602489463
H            6.84848486096636        9.04747892556038        7.00332787847804
C           15.62002448736732       14.50163263510480       16.49057927841070
C           15.94686194295164       15.04902992816236       17.72592266480383
H           16.87557069059654       15.59518797853386       17.84338694462651
C           15.10265084655031       14.89126131092563       18.81446830433641
H           15.40500640149309       15.33381474422462       19.75470453087506
C           13.90389144765816       14.18828682019668       18.70625641916834
C           13.57886781603229       13.65786778984527       17.45579407107511
H           12.65302387069713       13.11286601387688       17.31471658931309
C           14.42315072028729       13.80247724439259       16.36773491396074
H           14.15254748527672       13.36236385390562       15.41678895679152
C           12.97658039495673       13.94458644531328       19.88988405412709
C           11.55703534576605       14.42332119469021       19.54156241397098
H           11.57683982819838       15.47838147480262       19.26674671848547
H           11.14390062674492       13.85468012345813       18.70949633937014
H           10.89658942144501       14.29897830473943       20.40026796859135
C           13.42987943893645       14.67699207333671       21.16004022596709
H           14.41994308109286       14.34632187576393       21.47401774284546
H           13.44806040459153       15.75495649367208       20.99946724799880
H           12.73013867719242       14.46725262088440       21.96989198089883
C           12.95519204530972       12.43465053429626       20.18822492971253
H           13.95760935164570       12.09097408708786       20.44510375001867
H           12.28854930034589       12.22519753957561       21.02522333655178
H           12.60857835857663       11.87300697738879       19.32155775582449
C           19.52213165142047       18.79649769991486       17.15463349007648
C           18.86866537920660       18.45287648212804       18.33261027198584
H           17.82204850496797       18.17631994185988       18.30513968494106
C           19.55047717076516       18.44990507910524       19.54104527003823
H           18.99974673597467       18.17849415509509       20.43219530355642
C           20.90516034430997       18.76865265350007       19.60769043910202
C           21.55208619276481       19.10044058231920       18.41465713018874
H           22.60998208741605       19.33624869101662       18.41261860764109
C           20.87178724330244       19.12753912622053       17.20913926364213
H           21.39421171566456       19.40331578146508       16.30101377652454
C           21.69563727973796       18.72889334397454       20.90774153366342
C           22.40381296531730       20.07830569380414       21.12140929015942
H           21.67007412126376       20.88468634796824       21.14343751682463
H           22.94284717107524       20.07157033228461       22.06916638808809
H           23.11792038238514       20.28030084631110       20.32403648379291
C           22.73809225518131       17.60086482094102       20.80313586179126
H           22.23818922483589       16.64651652936362       20.63326478677558
H           23.42448745914042       17.78342381740081       19.97670602443571
H           23.31518991594251       17.53460443537842       21.72574879138371
C           20.80603355326917       18.45956413022084       22.12981268790185
H           20.33304915634663       17.47953590912828       22.06318076249023
H           21.41582380374698       18.47812313640661       23.03380128648362
H           20.03236706525776       19.22205997775582       22.22399783726599
C           23.24486429445330       18.10500630628303       12.58744367592510
C           24.31340100942626       18.25776113273009       11.70852636015924
H           24.17437013886903       18.80941588117441       10.78570325515307
C           25.54947041490627       17.71581807960690       12.01413625574482
H           26.36209473053880       17.86008234692458       11.31117669382806
C           25.75834774694287       17.00070507065996       13.19683465796964
C           24.67762941196954       16.85372045302740       14.06422898784429
H           24.77749290767892       16.30964210635754       14.99512580259704
C           23.43793980725095       17.39990573942339       13.76636625514466
H           22.61501605604921       17.26009346107804       14.45773865948639
C           27.14069137207112       16.43661146793740       13.49890635248808
C           28.12590221150716       17.60972206683196       13.65196990170342
H           28.17333645655539       18.19749405164264       12.73562594944632
H           27.80745251420187       18.26174800513809       14.46571964419403
H           29.12517427583116       17.23435300402786       13.87459720624669
C           27.59123274060297       15.53597625147687       12.33632377357741
H           27.69675370204037       16.11191725011078       11.41807893467167
H           28.55331888718285       15.07637996551272       12.56436652093134
H           26.85850402318702       14.74705383558698       12.16686390480141
C           27.17129389028453       15.60643434291269       14.78997625607086
H           26.47730278499134       14.76762091664722       14.73069628425133
H           28.17479663986747       15.20675627762598       14.94126063989687
H           26.91581799313487       16.21707091524192       15.65611714977890
C           19.32175056994869       21.96897169216190       13.78084318666074
C           20.61534264817499       22.09693078165911       14.27297709960997
H           21.45807400504040       21.99086140636275       13.60049199098547
C           20.83672912729025       22.39229081842895       15.61064712138604
H           21.86253995164222       22.49513159915299       15.94200514454946
C           19.77602259989079       22.56993415237508       16.49642946348506
C           18.48216157822946       22.41665789131572       15.99234199086233
H           17.62502093909372       22.54300830473851       16.64198312497264
C           18.25376130612921       22.11234362867830       14.66291951733004
H           17.23980808086714       21.99721174094056       14.29923569590003
C           19.98173779429854       22.99591655541560       17.94488331014877
C           19.06862248824996       22.18949054520760       18.88406061235209
H           18.01990591832902       22.43639186630245       18.72378193888988
H           19.20541258026079       21.12205793016459       18.71754782501737
H           19.31086411682552       22.41275618330886       19.92365013752497
C           21.43228439875329       22.80114644172818       18.40930067302861
H           22.11503255308125       23.45062426994447       17.86183808393995
H           21.51319557049178       23.04659576899591       19.46897250172291
H           21.74160401925800       21.76488923224957       18.27242230582213
C           19.62319226766009       24.48985768299166       18.04829314800156
H           18.58795192579269       24.65375276956996       17.74827118092325
H           19.74871842778950       24.83860631234591       19.07377906333789
H           20.26934537578054       25.07722799925530       17.39564262600202
C           22.46372052330226       22.97033895207292        8.72775757590246
C           22.37439949239864       24.09958118134289        9.53604469033843
H           22.60761125202134       24.01951113176217       10.59114082219765
C           21.97653941357362       25.31713169863723        9.01029406998637
H           21.91169455258178       26.16277949808539        9.68352235617248
C           21.65616822905058       25.44804279136634        7.66002633331480
C           21.77178237726914       24.31298154300087        6.85560970519071
H           21.53214865955689       24.36247594848136        5.79992637671293
C           22.17414393495286       23.09411901815502        7.37588288439904
H           22.24376664610926       22.22815867682172        6.72764179970713
C           21.16048170465294       26.75545613102976        7.05510402234389
C           22.04411630873906       27.13784003656839        5.85478896263179
H           23.08210154294575       27.24012896358036        6.17256328471092
H           21.99531638451687       26.38168859752416        5.07211575667028
H           21.71240541723596       28.08724843906005        5.43309584690525
C           21.18967967980594       27.91912579493645        8.05685766255149
H           20.52899681993241       27.72574888960296        8.90206896790956
H           22.20094072364260       28.08977874275247        8.42666113094997
H           20.84885513431557       28.83044430352110        7.56365896825174
C           19.70714028747933       26.55412734816724        6.59099867075135
H           19.07838454071293       26.27707146071433        7.43772884095478
H           19.31829731091860       27.47267655067294        6.15041727551047
H           19.64771422986583       25.76060655476794        5.84754194864197
C           24.39472879772897       17.09024927161549        6.80099514729856
C           25.25212971082441       16.61229260642299        5.81698128026012
H           25.06727301681828       16.86408309715577        4.77941098912477
C           26.33137480331036       15.81133507819937        6.15474354255531
H           26.97194562824856       15.46396543160155        5.35557716779572
C           26.58941576522923       15.45588818799598        7.47666947377109
C           25.74057596686114       15.97031325900354        8.45864777238547
H           25.90657668111094       15.74543632600472        9.50591770400492
C           24.66206686159041       16.77291528200564        8.12851758747617
H           24.01604863683510       17.14576364543134        8.91385593907466
C           27.77296524702107       14.57932384341051        7.86760726050778
C           28.84137423711681       15.47699989887561        8.51576225849852
H           29.19035474959716       16.22066554409940        7.79887158685463
H           28.42824599064437       15.99918311376608        9.37824875110552
H           29.69181108126944       14.87862168474608        8.84382674580080
C           27.32420147706967       13.49828953888844        8.86524084750807
H           26.51748110562671       12.90580088936506        8.43331400848170
H           28.15701192994823       12.83411790403105        9.09915854319784
H           26.97043747250401       13.93575869845157        9.79734264080950
C           28.39702222652742       13.86579399228786        6.65842763748981
H           28.84266589353519       14.57771167475791        5.96396208079262
H           29.18449346983877       13.19242828170513        6.99930454275976
H           27.64692790722548       13.27563616723193        6.13067471210549
C           20.63218122169010       11.00078251694424        7.19329687085002
C           20.14535890110300       11.19330489817949        5.90310659606491
H           19.14619074449224       11.58588307744566        5.76096982065686
C           20.92561804454543       10.87836475084487        4.80500668745551
H           20.50563400064543       11.03350656379905        3.81954550401797
C           22.22172415806152       10.37921475154923        4.94637130660471
C           22.70970450744385       10.22094303812338        6.24310929030235
H           23.70858323653575        9.84117524399596        6.41924600646350
C           21.92863102562944       10.52518241521382        7.34841863766215
H           22.32888380134316       10.37208173385915        8.34372331217683
C           23.01609103643874        9.95687391568751        3.71647204747129
C           24.51663174842905        9.81821694357957        4.01428480667552
H           24.70878363742625        8.99445905838610        4.70158816422384
H           25.05700680872921        9.61564420417902        3.08886997906837
H           24.91032124339314       10.73728229774635        4.44751679739217
C           22.47548297583949        8.58876750656356        3.26047441282378
H           22.58599095295225        7.85492899291822        4.05906266378143
H           21.41888098591966        8.66530513977213        3.00433119942259
H           23.02227393616327        8.23992645067006        2.38397094354603
C           22.84266022697788       10.97238858247129        2.57384590380286
H           21.82255596040397       10.96829149872900        2.19144944552482
H           23.08114092487924       11.97719990705236        2.91989318584085
H           23.50943122154729       10.72114236037356        1.74840578234984
C           21.10276783819474        9.42847492511195       12.98888380689911
C           20.46864359869723        9.40298365298570       14.22213885515531
H           20.57608907912533       10.23940264904062       14.90263607371555
C           19.68268662177902        8.31728404198589       14.58452587384210
H           19.19884538685830        8.34669516480848       15.55263026763002
C           19.50957742017473        7.23020103907807       13.73079092459550
C           20.16607612462841        7.26269701947735       12.49814715691948
H           20.06266369165446        6.44006520058310       11.79976574216069
C           20.95282049794102        8.33818955961385       12.13407155596052
H           21.45777410955230        8.33867797073129       11.17581040535485
C           18.63722007517190        6.02752434992467       14.06535566255226
C           18.02617210429452        6.11465971877021       15.46896362801148
H           18.80238793318673        6.17312743083507       16.23201434115170
H           17.38004189426803        6.98767984896046       15.54914868845839
H           17.42274648024085        5.22711568520467       15.66262017585917
C           19.48572059800311        4.74545172418933       13.99035750290337
H           20.32413769526407        4.81179236982427       14.68420138975512
H           18.87856778719016        3.88011635790551       14.25797411889035
H           19.87822414230879        4.59069447535658       12.98595461110123
C           17.48954241013860        5.95348030052696       13.04166712352266
H           17.87516414110804        5.82303030736503       12.03096129111784
H           16.83296413313718        5.11411168337801       13.27251362787032
H           16.90444553837084        6.87302007513836       13.07180845352633
C           20.63300723237698       14.38454678606759       16.23264400256523
C           20.34461283947466       15.43512491858307       17.09939475848459
H           20.58133925540346       16.44923494693725       16.80246277300731
C           19.80256440797992       15.19148862124550       18.35163108933660
H           19.61169869526474       16.04074137046110       18.99306997941230
C           19.52963988356456       13.89642781714300       18.78605930540072
C           19.82733037843145       12.84955146077182       17.91130297779808
H           19.65646176587512       11.82130588500012       18.20967341299848
C           20.36451852539212       13.08779375029293       16.65706203150881
H           20.59603014908954       12.25174046320923       16.00798577378134
C           18.98703531810789       13.59681111758917       20.17776987842585
C           20.08554154283179       12.87358107341647       20.97802124049725
H           20.97206106318889       13.50437181707634       21.04977807002903
H           19.73241204216686       12.64957105407177       21.98505070718086
H           20.36383557155008       11.93896241492794       20.49151759330272
C           17.74587028031587       12.69482496327774       20.07616975374172
H           16.99283014675028       13.16718941330348       19.44553758809006
H           17.99900791843834       11.72503217144618       19.65050013474141
H           17.31709192827973       12.53064909946106       21.06533698564454
C           18.58816138374281       14.86925060602520       20.93905985099212
H           19.45443808602904       15.50496359874795       21.12341046853690
H           17.84399942050807       15.43819410461331       20.38125542008778
H           18.15742978485195       14.59860105168612       21.90381562975982
C           17.50848860661289       10.93907032928258       13.21843438604127
C           16.62997786116035        9.86715258834695       13.30304470698576
H           16.29795824242471        9.36886250261609       12.40000620943249
C           16.16840086667274        9.43546711835899       14.54085808908372
H           15.48003293945855        8.59967539742543       14.55955519400763
C           16.56671445350701       10.05934043573326       15.72297281238405
C           17.43762165762459       11.14633856639633       15.61839561255649
H           17.76149339081629       11.68087470949164       16.50371495020590
C           17.90173883140663       11.57904823132149       14.39053334955542
H           18.56567934964655       12.43359417874886       14.33936768044080
C           16.10224113422699        9.61459439048415       17.10439688133998
C           15.42456969570688       10.79508326916478       17.81897401949790
H           16.09688450204863       11.64738921055292       17.89710221095990
H           14.54034778838772       11.11101288690295       17.26799213983905
H           15.12098239703545       10.50075885695578       18.82392584351450
C           15.09988531618238        8.45401028450783       17.05041720996095
H           14.77604840464371        8.20513015464645       18.06170593064394
H           14.22016207643267        8.72844605162354       16.46852495254385
H           15.54773338768624        7.56396220502998       16.60965636835548
C           17.32517704658230        9.16864940548842       17.92560189594528
H           18.05019151257671        9.97731698727086       18.01190896275389
H           17.01608608718128        8.87219052210178       18.92839811620606
H           17.81388981935310        8.31978276461254       17.44863280278387
C           18.66729551767222       22.08432145488714        7.21670762696688
C           19.47502804559802       21.53713415686863        6.22409169271209
H           20.08963590038423       20.67204501398199        6.44505841374777
C           19.50316858892572       22.09277033668620        4.95578507671997
H           20.15360278601517       21.64306662865749        4.21391531603576
C           18.72894802911742       23.21013234153174        4.63207997370063
C           17.88711865355457       23.71758878708793        5.62223825633481
H           17.24459566090180       24.56648395255822        5.42578353766054
C           17.85493180660520       23.16580026178501        6.89424016504008
H           17.19834064239097       23.58918382895045        7.64517614513042
C           18.84648363625065       23.83959260085956        3.24855925807778
C           20.29785388282459       24.30139472258965        3.02844313165649
H           20.99118851180496       23.46590586853896        3.11912340829954
H           20.40650441808518       24.73481721941677        2.03367504583805
H           20.56694510953202       25.05768696950194        3.76541520372025
C           17.91963817759687       25.05066423528784        3.07003726208486
H           16.87500649241586       24.76416442146083        3.19543530296316
H           18.16029031034133       25.83836499676961        3.78391081957120
H           18.04191072369585       25.45560335622084        2.06462376385596
C           18.48268357993658       22.80296231968391        2.17429125926316
H           17.44831485559567       22.48821318918099        2.30476204965326
H           18.58942387622880       23.23710433491505        1.17955938762731
H           19.12424439919412       21.92531740619137        2.23813315014059
Au          14.60367455157752       16.56988717642443       10.83556678335342
Au          14.80270507955782       17.20219865152749        7.84863707677138
Au          17.03861181259724       18.19209808000792        6.60685420170249
Au          20.05400262591545       16.24903795874896        5.40798222117921
Au          21.83593870995603       14.39811041236279        7.80911460534301
Au          20.43590293028684       14.05706692310852       11.13934165280028
Au          17.43740718395596       15.12984599793787        6.59758878597186
Au          15.38058105958897       16.92239028012525        4.34199508428882
Au          12.87530060517503       19.13200965835427        5.73002637489793
Au          12.18811824854318       19.14640426579035        9.54058558331563
Au          15.13991806229263       20.00968600596800        7.64908812378655
Au          12.51351674946685       22.07248744074135        8.86366235190136
Au          10.46222561351907       20.38956112064833       11.61455090065617
Au          12.24646778500001       17.61257290699335       11.89734186301226
Au          14.06371653775398       13.89686808459764       10.91525810177975
Au          12.58154886641413       11.67824531017440        9.40637567938886
Au          11.77775960351492       12.91827337631775        5.94568488815028
Au          13.07362129758474       16.15338573265386        5.99490034449524
Au          13.79219842868609       14.08735078670478        7.80746493649398
Au          14.45311400628208       19.29019132381153       11.18477381712545
S           19.07343748429428       18.37330428491769        5.24106423598470
S           21.19272658626390       14.17421576798477        5.56419198778121
S           22.50163958607270       14.96196880228028        9.99041463487901