668
 energy: -1005.443528256709 gnorm: 0.000661971199 xtb: 6.5.1 (579679a)
Au          14.20168683856971       12.74542918120432       30.13729754438320
Au          15.32619171518563        9.97014719817183       30.19152275212617
Au          16.34375470819224       12.72439637610418       25.82615320549597
Au          16.44806462737050       10.21237403229068       27.39260701957670
Au          14.26795740764008       14.49696671901435       27.75895527555711
Au          16.74320670354551       12.84203644876009       28.68877511275181
Au          13.89663674028254       11.64957829614413       27.42837149638806
Au          11.62550240991289       13.37355118047930       27.70943360858023
Au          13.76956308921722        8.89163653578728       27.75986804586181
Au          18.22001814985252       17.49865622272309       28.75064105321046
Au          15.45013254705401       12.18001878807354       34.82852057490675
Au          15.33187525200091        7.82009715903648       32.24512178489165
Au          13.06508907394153       15.78643117363030       22.91705914962034
Au          11.94872174813060       12.53205697465485       34.24168125079535
Au          15.15854542116617        5.50185698044971       27.73139553277974
Au          20.90867182000956       11.61190948611750       24.85366440594268
Au          17.49636467683177       17.63440842944012       24.86637713008581
Au          18.61043926770845        6.04358245319246       27.28778934866584
Au          12.49750284266538       10.47195331810659       29.88433438930074
Au          13.21124573448770       15.46978040353996       30.36364486412319
Au          16.92912770630877       12.32378116410919       31.39614318250703
Au          13.82418345173734       11.06351538758902       32.44370125792996
Au          16.05158186537288       14.97865564721490       30.59947546549605
Au          19.00634464422154       12.63371441960887       26.95697133736167
Au          18.15228998962200       10.27646357549795       29.67067666234591
Au          15.20841933716595       17.10834262236053       28.60683415933209
Au          13.65901389877244       13.54097624412760       24.95713007158135
Au          15.34798479328554       12.06394035589278       23.17188651920995
Au          17.41198962485166       10.20556055110497       24.66762835561386
Au          14.24100636693710       13.86857670256384       32.75662477308853
Au          14.57953927079319        9.91843183636980       25.15826004348022
Au          16.77973903718265        7.79090422186947       28.89914716235881
Au          16.91970949162739       15.46249073258681       26.98104607309677
Au          15.83963197941437       14.74036439652587       23.85186529771930
Au          11.24688978184719       13.20713924762234       30.36039678469076
Au          19.39342440195167        9.98458705519097       26.88543005511337
Au          16.37010873859402        7.65023017770412       26.06820407262632
Au          14.71591894061185       16.61753769858833       25.88569946848615
Au           9.22815187552101       11.95596821203522       28.48443058336350
Au          14.55051329386091       17.43001705611018       32.09717986357750
Au          12.34744307258022       11.86359267004418       22.81241193102148
Au           9.72771554528978       15.39140959931570       28.98720283094498
Au          21.42204357256399       11.70062657148506       28.31469316294243
Au          16.03974543862668        8.60293984233343       22.60768525384002
C           15.78434313240555        0.68097947626823       22.01512065954301
H           15.86936567665000        0.01624293538620       21.15467978961404
H           15.54612366680624        1.67875486121153       21.64695023972122
H           14.96395081779437        0.32737304369546       22.63994470161657
C           17.42526772932654       -0.76900666421067       23.19722842205746
H           16.67078301700192       -1.13670954863168       23.89317801429157
H           18.40210972810431       -0.84172950887176       23.67400905772741
H           17.42765748396253       -1.40931911641162       22.31468643073719
C           18.21562388383245        1.22277688729674       21.87157540123179
H           19.18456226366779        1.18999977024934       22.36924467048831
H           18.00153408778789        2.25677129861756       21.59923461777861
H           18.27265173724349        0.62542819991159       20.96126456845836
C           12.80342226158975        3.57564453882082       21.62702957208614
H           13.04167659104897        2.66334592560121       21.07923283857109
H           11.71967271527229        3.69362178110670       21.65477534824993
H           13.16456541375112        3.46533061409881       22.64915750970614
C           14.98348342445049        4.65951758949252       20.97430729478465
H           15.44202848326327        5.51722196804873       20.48048497547646
H           15.29679548687441        3.75179276606284       20.45748320583387
H           15.35084061259997        4.62091841657788       22.00033420945358
C           12.99789794127199        4.81242648908105       19.47214684296162
H           13.46400931724294        5.63697914624947       18.93212432159696
H           11.91428436465785        4.90764746782603       19.39967401951804
H           13.29187425296670        3.88074848513903       18.98719422584871
C           23.01404602104265        5.09168548287911       24.84363219965310
H           22.79124205278590        4.08942648576737       24.47725288674098
H           22.55094340242153        5.22529129272160       25.82180582048181
H           24.09507427584771        5.17554579490394       24.96372439249766
C           23.19946881712404        5.93957589304710       22.49884275040955
H           24.28398350894109        5.97879394200542       22.60750377222420
H           22.89523205240045        6.70546529712725       21.78574320751500
H           22.92232637378514        4.96371156379142       22.09922991091559
C           22.92300247161031        7.54110024529452       24.42257552337606
H           23.97727826769636        7.54453105322308       24.69848966912315
H           22.32788176161993        7.76243313555088       25.30981332759892
H           22.75771949989463        8.33211264258953       23.69182744663161
C           11.37138532325122        9.07358795806106       16.51661914563883
H           10.58670207797289        9.14887081768324       15.76278352626638
H           11.00727816522213        8.43703387462597       17.32347113769599
H           12.23998762266570        8.60273393575619       16.05589777259059
C           12.20088474061583       11.33099050206236       15.85327540127601
H           12.39522608141021       12.35633332024491       16.16695128319312
H           11.44391648029680       11.34842321498935       15.06858340270829
H           13.12079388750753       10.91376607254956       15.44282582729357
C           10.43895979705809       11.09605705004347       17.63344654314087
H           10.61161037793590       12.12750703474810       17.93852457146841
H           10.11835183538765       10.52641667969818       18.50626183911232
H            9.63603310168044       11.08699109566061       16.89561636534579
C           16.59700314448070       13.81747324541652       18.35208761148531
H           16.25590006576556       14.42779714135113       17.51512635794511
H           16.14407015771347       14.19804912637895       19.26678218835314
H           16.25891267158650       12.79232118352819       18.19933098182343
C           18.59149036833747       15.31993087802171       18.62075062226965
H           18.35802766689480       15.88592997949900       17.71814897500723
H           19.66828902042631       15.35781329574154       18.78628281752162
H           18.09120953963823       15.80443655135901       19.45806120398223
C           18.73059024374228       13.31767903103081       17.15192259523863
H           18.33854041870276       12.32763921708956       16.91948388700239
H           19.81733776699691       13.26298157983457       17.21960019274440
H           18.47042271933681       13.98299940961334       16.32774136656018
C           28.36308385334031        9.04085756171304       26.39449845980430
H           28.64328333401934        9.91321523910478       25.80361305046926
H           29.16347954194848        8.30324885947974       26.32999572040967
H           28.25969420973631        9.34577443283258       27.43543319077533
C           27.29032010682698        7.94515739650833       24.42869347877668
H           27.60286077101012        8.76189950360810       23.77786112180860
H           26.39003965525846        7.48735287120876       24.01777215870937
H           28.08044321718065        7.19336449580743       24.43365192940924
C           26.63773522916922        7.23714007400153       26.72674976056068
H           27.39607506374013        6.45600087661013       26.66714595007191
H           25.68946314678086        6.83025326041740       26.37362523390887
H           26.52145169268165        7.52538959453754       27.77117448148378
C           21.09397174035549       18.90098510533847       22.24893201296770
H           20.00521651020220       18.83344787486155       22.25006779970821
H           21.41195219110406       19.40025487787512       21.33321266768554
H           21.40211359386905       19.51015905134027       23.09785426039586
C           21.33270841324274       16.73389210393129       21.05007424869344
H           21.76773058459515       15.73447563981166       21.04219119079361
H           21.70799813606313       17.27508964926717       20.18074674230364
H           20.24931401959173       16.65132283415070       20.95848326677027
C           23.24240620584593       17.60039747474375       22.40824369827977
H           23.54643542423085       18.18976648435422       23.27326633055020
H           23.63201712090932       18.08032657584421       21.50997718284973
H           23.68289822567266       16.60675968468638       22.49366790345156
C           24.11330760839670       21.04750186472601       25.76268932129070
H           23.96947532361695       20.25854764671539       25.02328336722485
H           24.18607442807750       20.58820193867005       26.74804010874530
H           25.05245014878646       21.55886101257005       25.54960839825254
C           22.95382556099860       22.72037188020597       24.32520178609707
H           22.86181735181824       21.98309946785378       23.52723661665862
H           23.89772265553442       23.24990684306881       24.19011488363690
H           22.14285939823121       23.44365486427576       24.23717590047173
C           23.12252307025666       23.12953704154459       26.77828446798927
H           24.03373888006030       23.69726499338341       26.58765478151302
H           23.19402068997478       22.68916751185552       27.77234032397019
H           22.27444540285495       23.81484224660772       26.76339791220115
C           15.03574712915968       20.25861526783733       17.81901318682138
H           14.51996666686657       20.60035170079752       16.92085246921421
H           16.10887859973824       20.30146726033137       17.63258349402892
H           14.78828337770982       20.94228290441340       18.63106936107819
C           14.92311776682772       17.92701114226000       16.94881545788748
H           14.55556914815691       16.91329612749999       17.10552366916750
H           16.00264154688328       17.88457176428746       16.80139105509259
H           14.46165669183035       18.32402589996922       16.04422169258491
C           13.06999437856471       18.83668920229408       18.38848502989818
H           12.82888470412479       19.44312214147578       19.26199049406301
H           12.69561252855920       17.82723956258938       18.55462399766353
H           12.55708019182163       19.25463863222595       17.52181054632979
C           17.44686853548969       22.42712203859867       22.29775866716028
H           17.69145011844519       21.61776760618786       21.60921175880448
H           17.82802321157555       22.16853074386990       23.28499702180703
H           17.95036730721637       23.33428610167154       21.96244965994002
C           15.46880614423068       23.12098957420642       20.94956559894645
H           15.72155623608893       22.38583671474067       20.18551041362879
H           15.97316705198963       24.05513126797440       20.69953990832496
H           14.39354093584139       23.29889204683248       20.93029864247464
C           15.58721135970711       23.75133794292620       23.35685381575245
H           16.03821518646200       24.69574729744570       23.05099346476797
H           15.96273601689869       23.49643211571389       24.34745037283571
H           14.50674000156058       23.88365426800305       23.42003900011370
C           19.51109234545836       23.34648783782541       28.92524165552743
H           20.34467854422054       24.04469736057961       29.01227035264111
H           18.68569453099896       23.86108312431977       28.43293589744187
H           19.83341684041724       22.51275784294069       28.30143594489105
C           20.30516005069290       22.13377706048313       30.95287359239434
H           20.54464547430634       21.24061751453565       30.37462012262306
H           20.08582718240327       21.83347400077801       31.97727469685194
H           21.17782601063528       22.78748934608873       30.96339480713858
C           18.73316524587367       24.08923503800579       31.17291900790906
H           18.51109888961282       23.80427977288183       32.20084768685320
H           17.85686639867413       24.58350449380712       30.75274300229743
H           19.56174613983570       24.79800447959425       31.18520341942103
C           13.86495826362717       22.06862528102375       27.15208116604787
H           14.33393255482152       21.19643265353146       26.69833255774418
H           14.22212978457578       22.16057717806087       28.17798042293648
H           14.16756271004215       22.95557362115236       26.59425156214458
C           11.85039608775599       21.83127090719706       25.67457252139857
H           10.77932761620087       21.63097046893175       25.64563584236861
H           12.36958981745214       21.04501855370742       25.12828533347210
H           12.04156540385168       22.77544694910023       25.16316075036217
C           11.70653707593200       23.17040858847260       27.76444697304508
H           11.91514269646766       24.03837887165012       27.13776941099676
H           12.12169115001441       23.36473390890635       28.75323121017074
H           10.62533569404268       23.05854174675791       27.84859288579650
C            7.11076006328906       16.48540128811879       18.90840613015979
H            6.21238663270968       16.75649183860124       18.35303159444012
H            7.78844804063181       17.33860281092193       18.90298831575432
H            6.83169059086862       16.27153117726445       19.94079193525683
C            8.22318252452011       15.57593538227928       16.83980917646971
H            8.72237027390543       14.71223738948871       16.39940274993966
H            8.91437968062485       16.41824808724052       16.82865077303688
H            7.35932606756246       15.83138129024927       16.22542744091573
C            6.73119175543420       14.12359687746888       18.20914343557516
H            7.15000371562774       13.22984679100100       17.74606360168556
H            5.88171644071847       14.45077598793120       17.60835048686825
H            6.36558443857915       13.87121105232350       19.20465251438474
C           23.14303296426433        8.73918049396528       32.96190431573833
H           22.12259390174891        8.44452768415728       33.20584021703856
H           23.12746714965833        9.75475036847914       32.56627053464616
H           23.73461479530441        8.73075316650027       33.87777827544173
C           25.19055718903623        8.23754651073126       31.63335639080800
H           25.66128015598493        7.59230236594903       30.89108989257440
H           25.77849137138377        8.18759330203995       32.55066665354089
H           25.21147209811170        9.26684520029984       31.27464660878069
C           23.80532332292602        6.35716022697103       32.49916477979619
H           24.46513992322724        6.32888606645851       33.36686012639807
H           24.18460920253233        5.66321692603985       31.74856382622105
H           22.81652778504618        6.02309518487673       32.81189296913628
C           15.20974315855745        0.92818419342938       28.89761299144786
H           15.79029044747137        1.40822099550146       28.10892352864260
H           14.26818069810190        1.46573499005710       29.00804859774710
H           14.98933924209348       -0.09603548048785       28.59542153354234
C           17.27030647229789        0.08459316313071       30.01504407419254
H           17.86955434537443        0.05439180710488       30.92519815446452
H           17.87901116557041        0.47803371517735       29.20041322692785
H           16.98446159800875       -0.93707301286055       29.76176005730986
C           15.16672163636008        0.30156003999880       31.33767996562976
H           14.94452649718535       -0.73886262617089       31.09855433763117
H           14.22394156227590        0.83241827419211       31.46791844724408
H           15.71547258895870        0.33442507052842       32.27924964925374
C           19.67975353606133        5.68214727357186       34.31948562429348
H           19.99852402693614        4.71695221221205       34.71475828377589
H           20.38393350904342        5.97792615257220       33.54164406747386
H           18.69244251443063        5.55846134775599       33.87388700158625
C           21.06170553925886        6.82649220122734       36.05183894593360
H           21.75627987555956        7.20176581817381       35.29980842889426
H           21.40576804104637        5.84718242386221       36.38573644534226
H           21.07458506746112        7.50559823924371       36.90385474397994
C           18.66343203520064        6.21920822091341       36.52847544759186
H           18.94613676039821        5.22145683138760       36.86518343433320
H           17.65454510885096        6.17688145762111       36.11662236333500
H           18.65678556726598        6.88503687187228       37.39111718362781
C           11.42604907706580        2.97547438297482       33.38017119785012
H           10.58956487935250        2.60367275193469       32.78809358345455
H           11.26743362788730        2.67671925407270       34.41702935070481
H           12.34648646493146        2.50803589856061       33.02887066579628
C           12.70165435618265        4.96329379947753       34.17775490883574
H           13.64098086412266        4.58823293724135       33.76960885470693
H           12.58369344016904        4.58136137468250       35.19219719130052
H           12.75496758826176        6.05075914976029       34.22405769090697
C           10.21455126809729        5.10698895452333       33.83593781280379
H            9.37669212343163        4.79314901447094       33.21338153746655
H           10.25916275800490        6.19563142870739       33.83872901594322
H           10.03678135271360        4.76797935022192       34.85690639473867
C           15.75736261795257       11.12296173279828       39.12613807961173
H           16.04538193932349       11.43185091468902       40.13140092395228
H           15.11604083009236       11.89243973079890       38.69450399829073
H           16.65802782929608       11.04358467524473       38.51751464418334
C           13.79599272417454        9.93974007171759       40.10791880276306
H           13.22747640970174        9.01181810505496       40.17225298869025
H           13.13881227047947       10.73696742547617       39.75973852516554
H           14.14072830993172       10.19831803616252       41.10988351506332
C           15.92404196969203        8.68905652097944       39.75491817507880
H           16.19715794246926        8.93545411987194       40.78142212840218
H           16.83899975220263        8.59524179377915       39.17052492314334
H           15.41037907076168        7.72736499290576       39.75109036995967
C            5.51869127234779        8.18069790984404       32.33961574758141
H            4.85520343454012        7.34487644192642       32.11567780088165
H            4.99609638392477        9.10777696383583       32.10381196836840
H            5.74414101617388        8.17291099019604       33.40636972397500
C            6.49147616741775        8.10652988983484       30.02015940112374
H            7.41146594979919        8.08897310625971       29.43577508824362
H            5.93978505847905        9.01130664893518       29.76630448389411
H            5.88458499783823        7.24468746346938       29.74121374953728
C            7.46078600879761        6.70163689010480       31.83789898343376
H            8.39426992651468        6.57470511883159       31.28945930182194
H            6.78274622627661        5.89925360577929       31.54492817410040
H            7.65951005222765        6.60553412143105       32.90520179726497
C           14.11461556282284       18.47203698477584       38.78844976050104
H           14.11724652614295       19.33583559048401       39.45393794219028
H           13.60571815598460       18.74865238871724       37.86503135204715
H           15.14803576539392       18.22019620351586       38.55422007144829
C           11.98416633532416       17.75999813095254       39.85735461299758
H           11.45305815641794       16.98559085250472       40.41081007242310
H           11.40171541849325       18.02958406825103       38.97587429823307
H           12.06056888566540       18.64013071788392       40.49689719463631
C           14.15178067589929       16.88858518981668       40.73797432445099
H           14.17972631272063       17.72357866094903       41.43855677009154
H           15.17561436905357       16.59929605840631       40.50177820614578
H           13.65531597060134       16.04501731504482       41.21816981674608
C            2.98033301365818       12.00499997411704       32.08041093357168
H            3.54021145224983       11.07850995085649       31.94897040588798
H            2.37289690725176       12.18257659961598       31.19280034275571
H            2.31060286086179       11.87724058522480       32.93164873717236
C            4.75094708652493       12.86829221867936       33.60761023035169
H            5.37942026041462       11.99418629898169       33.43308697969854
H            4.08826473128258       12.66038077912805       34.44809188387454
H            5.39375205789926       13.70700931239975       33.87403941291070
C            3.07396698462278       14.44435333143802       32.58380664224330
H            2.36334312958503       14.26776852348831       33.39170806885016
H            2.51943505160527       14.69654352169385       31.67962431415786
H            3.69823526537040       15.29469275982835       32.85653885479940
C            8.28528293590417       16.32568513551293       36.96272938891765
H            7.25570572250995       16.41763915021666       37.30980584615306
H            8.93356554906486       16.84956773608704       37.66483914568320
H            8.56021258043411       15.27035844432201       36.95897980008759
C            7.41874933868511       16.19406765254333       34.62901179959533
H            6.40685752435433       16.35237992968099       35.00405715432507
H            7.60785395519625       15.12054868967209       34.60510736428030
H            7.46958952967113       16.58636289416640       33.61306765699442
C            8.07895562802731       18.40957376779901       35.56249931793085
H            8.20822279125174       18.83327481485513       34.56624931958799
H            8.72292959058919       18.95034381269563       36.25542039367468
H            7.04326637616459       18.55319699409908       35.87186807304872
C           18.45649325666453       20.64082694282521       35.84498540634154
H           18.26467453284488       21.15067212581025       36.78989211249782
H           18.15302318213998       21.30485694717477       35.03519815037333
H           19.52784059141717       20.45397920283966       35.76879044376681
C           18.08054124020918       18.47395299739881       37.01701642762476
H           17.47363316397392       17.57185496992110       37.09024586447997
H           17.95363626028607       19.04606139695554       37.93664790045215
H           19.12713811831936       18.18050308580518       36.92933534696903
C           16.16486612843130       19.65239244070068       35.88287271214650
H           15.57031031930747       18.73889955812801       35.89692208194482
H           15.86496558796010       20.24370471192915       35.01681371282806
H           15.94932958507908       20.22292302004725       36.78661154911380
C           20.96736705140921       16.19164541821421       34.42761412190879
H           21.04697400643122       16.82306384742271       35.31366983583587
H           20.11876638664356       16.54187333741105       33.84400340060820
H           21.87567891236199       16.31022773035286       33.83634269103369
C           19.44645202535225       14.58202458434502       35.59896310098501
H           19.32733457228195       13.56525592157605       35.97388735281689
H           18.61786247425454       14.79268359884794       34.92309788526571
H           19.40023036831647       15.27486380195628       36.43993010085506
C           21.94424567158003       14.36489987117578       35.79623876356679
H           22.01400248481619       15.10286302618333       36.59617432411593
H           22.88648362408786       14.35572683081689       35.24779227839144
H           21.79701872273926       13.38712751762203       36.25345352601818
C           11.04642218961215        4.59244733663025       25.46802116261994
H           11.08198850914779        3.77380963854133       24.74842542325334
H           11.05054851392867        4.17326222735413       26.47432355326888
H           11.94161867686606        5.20347263610726       25.35159520159276
C            9.75075604106195        5.90214648422389       23.77567998858197
H            8.89455606453503        6.55163689948637       23.59216677400980
H            9.66396034746995        5.02799188621518       23.12881839882952
H           10.66154112617957        6.43157766241123       23.50298366484415
C            8.52967728864586        4.61323093779332       25.51379923276027
H            7.63907994627787        5.23619591349274       25.42696433884178
H            8.55062084813263        4.17396451463394       26.51049184024128
H            8.46075519473146        3.80285465451632       24.78729616167612
C            7.37809224091012       18.25174428662042       22.99699124323223
H            6.91202572382765       18.11498486237700       23.97306044864031
H            7.07724994028960       17.42717783677984       22.35084599366749
H            7.01256148377982       19.18218806002652       22.56147667978354
C            9.56090070951486       18.45970585776546       21.76072954935321
H            9.25906178118743       19.40396503953313       21.30664515833856
H            9.26800925802517       17.64830456691485       21.09570912785302
H           10.64746339377461       18.44997939067037       21.85675879346786
C            9.28395970095953       19.52654938989838       23.99005489125086
H           10.36618000976719       19.59450089809323       24.10429656422723
H            8.82372014670964       19.48127829008115       24.97706683114039
H            8.93587952739338       20.43296850220135       23.49340302671938
C           17.10751002016415        0.68174899680985       22.79365096535302
C           17.05489109746388        1.55842649749683       24.03748877927713
C           18.15320460906574        1.59327914586088       24.90130034796003
H           19.02437159152740        0.97932250377925       24.70292805178802
C           18.16933590770832        2.41311992920425       26.01611250476626
H           19.03449097553968        2.42877402799203       26.66829532852111
C           17.07901457585232        3.23450742602102       26.29867653461661
C           15.97319637037123        3.19104568406397       25.45938498033507
H           15.11348891185128        3.81716879983708       25.66757920118417
C           15.96343171275988        2.36691786849821       24.34542953864596
H           15.08171156850364        2.37805489925185       23.71722964210100
C           16.00778866244263        0.93449992023649       30.21546174607654
C           16.32654994322657        2.37994560391271       30.57189667471016
C           15.27446931500009        3.27465241726891       30.78001601862128
H           14.24817469293628        2.92876135905241       30.74998637379477
C           15.50569663119622        4.62022157633478       31.00450638001099
H           14.67248541899666        5.29690932043840       31.14972224867501
C           16.80586033518725        5.11258284661392       31.03178996237843
C           17.86448928814445        4.22446173421966       30.88227927419785
H           18.88216747546379        4.59570878445558       30.91677127199113
C           17.62548688364826        2.87667011888340       30.65557689554227
H           18.48048583177487        2.22592011131199       30.52116659357995
C           11.52287141495924        4.50521642485473       33.29759206339729
C           11.77067756357950        4.99680505724271       31.87831768793221
C           11.94295675940049        6.36332178365281       31.65175639634462
H           11.81570822943206        7.07466784885269       32.45902409247690
C           12.31983479454263        6.84640163483169       30.41140157953313