408
 energy: -722.228203992752 gnorm: 0.000399675524 xtb: 6.5.1 (579679a)
Au           3.45727732921116        2.53806306284603       24.90015739516463
Au           1.41683288584748        1.85301614767873       26.90491922133775
Au           1.20619980944564        2.05793323582520       22.84871278035234
Au           1.72831643848449       -0.18570677216058       24.66821464473719
Au           3.88567322327399        0.10219022647001       26.67374356926215
Au           0.96792884269400        4.06983824095943       25.17811300733942
Au          -0.74091626997832        1.46689140132441       24.83051609129777
Au           3.88575981188954        0.60485838778905       22.70646859475078
Au           2.93075304787043        4.33462076220932       27.14155109554126
Au           4.34908411999989       -1.77353003883243       24.55466173471130
Au          -0.42938794661591       -0.31916488996229       22.69958759612810
Au           2.39698304850826       -2.36068549909283       26.44449096610776
Au           2.32007074927415       -1.92484849362820       22.39553564189776
Au          -0.17784777356802       -0.70035859462022       26.86423690279838
Au           5.47713401300366        3.00839035948347       22.85746476942112
Au           3.31097223433609        2.71626531897482       20.70572041657360
Au           5.47805836980721        2.55551458262478       27.06762884816356
Au           5.97373929418726        0.89477815121695       24.61833981508759
Au           0.99350699272679        3.64849904212351       29.67279639621035
Au          -0.34805896436814        1.16819131536775       28.94557624340378
Au           1.74458027870673        0.21315935474119       20.61444420816871
Au           2.82013982165406        4.52785890688023       22.79803118674154
Au           1.89943745935862       -0.52259240839590       28.78516952387269
Au          -1.03734757623623        3.68094328975803       27.52404171509616
Au           3.47178815749254        2.01940680641536       29.02467412601768
Au          -1.25492555898507        3.94869352853621       23.09132158575174
Au           6.34975294785605       -1.79091941716638       26.82977212245155
Au           5.71094775847173        0.34150893372246       28.77826374954051
Au          -1.17023377256040        2.00574562798823       20.67666175978122
Au          -0.31401779956332       -2.70350612297577       24.72748361395751
Au           4.38214452448589       -2.24857866719399       29.01412934994085
Au           0.79139182216801        4.05162156887644       20.91162251991775
Au           6.63602213205041       -0.77345157899765       22.20573732084135
Au           0.57157211725428       -3.24397321937083       28.54815335554780
Au           5.92232693246133        1.20641358864339       20.12297758680322
Au           4.22995532052005       -1.11372428849965       20.50762608715207
Au           4.75417710906404        4.66399948473558       29.41493266225459
Au           5.13004959186920        5.06689888141319       20.73996097679851
Au          -0.07718336075337       -2.13205199688916       20.42872139287559
Au           1.74403383637242        6.16929866291971       19.42264989438234
Au           5.38248989136350        4.97987535090795       25.33190829046161
Au           7.04220713300871        1.86323478110156       30.67921992621130
Au           3.31863532523848       -3.18848827977534       18.91121312866514
Au          -1.63825370806306       -0.72110649802327       30.50769971361610
C           -1.67846015803419       -1.81730195683815       21.65077553673121
C           -2.71114774477113       -2.33648107869475       22.05105163500480
C           -3.88902602868162       -2.97355310942658       22.50525793201300
C           -5.12319411854877       -2.74329166047497       21.88505283326612
H           -5.17798481884000       -2.06537170834168       21.04126205121651
C           -6.26092030918520       -3.38591765935890       22.34324951810338
H           -7.21440335394523       -3.20283102020422       21.86035818117278
C           -6.18517706040172       -4.26522892144390       23.41722759239175
H           -7.07890735299146       -4.76464020957501       23.77318978298910
C           -4.96202697308802       -4.50558100188220       24.03334042949803
H           -4.90126070708741       -5.19234971075192       24.87011408987744
C           -3.81997914296601       -3.86835375146121       23.58138638734761
H           -2.86428149647886       -4.05230637223085       24.05879406940727
C            1.14926932185513       -2.92068496096399       19.03566422836166
C            1.31266033553527       -3.59462656530881       18.00534078017581
C            1.15380422684178       -4.29329209874472       16.77681166711575
C            0.01796977874931       -4.04159144556312       15.99859100403851
H           -0.71485439029937       -3.32073509721597       16.34193299652525
C           -0.15818742378149       -4.70570461027885       14.79695732432987
H           -1.03871324113446       -4.50583085170733       14.19662053497807
C            0.78874541087083       -5.62282265244092       14.35732050621002
H            0.64703437433895       -6.13920845906692       13.41488336827661
C            1.91718771308423       -5.87691197743640       15.12647952157953
H            2.65696645372074       -6.59250783507924       14.78554845194773
C            2.10101561924524       -5.21720093665258       16.32980303741772
H            2.97949042884398       -5.41218154464329       16.93447097655637
C            5.28151264833423       -3.05544010676814       19.14493975054138
C            6.47144494947158       -2.83712103412856       19.28370976488382
C            8.58609118893822       -3.13725836906242       20.49100172508638
H            8.11732745486640       -3.87789117611107       21.12730874625979
C            9.91099805684446       -2.78529546831739       20.68987169253717
H           10.47587755951856       -3.24830676887663       21.49120725023834
C           10.51606200176085       -1.84429795356896       19.86670012423244
H           11.55669247469800       -1.58082376572991       20.01728720059345
C            9.78866711776188       -1.24700450790295       18.84375348898922
H           10.25901661783389       -0.50697009033862       18.20599904799343
C            8.46442398308008       -1.59175418062135       18.63708079281950
H            7.89329500742137       -1.12500298097270       17.84279207556742
C            7.84888753685197       -2.54544753892819       19.45781783001938
C           -0.55761559133692        5.45847750479717       24.26043411767214
C           -0.70607466133813        6.54075635959494       24.81052763832561
C           -0.92890038543737        7.78451204657233       25.44509014525120
C           -0.16465817840999        8.91286262295959       25.12549781812526
H            0.61941731453845        8.83481064320433       24.38213250417622
C           -0.41640645214854       10.12124130829847       25.75183236770303
H            0.18154618453405       10.99094773907892       25.50329928406439
C           -1.43105666436910       10.22206371061038       26.69561878112690
H           -1.62393143559200       11.16960814316367       27.18533118724603
C           -2.19493932414895        9.10639199708491       27.01698392883060
H           -2.98333482712722        9.18431631052694       27.75724269640041
C           -1.94787160231744        7.89218430560144       26.40100904434890
H           -2.53824853577099        7.01808677374496       26.65147388380959
C           -2.50623680787291        2.59504365546246       22.10557174850433
C           -3.63636153234541        2.29794062199296       22.48130978608428
C           -4.94159065707874        1.97851052513882       22.91789966579200
C           -5.61351889315238        0.86802023268487       22.39579962648773
H           -5.12717970598627        0.25628883221027       21.64532991089072
C           -6.88662594958034        0.55721517278778       22.84124152822121
H           -7.40061411024180       -0.30840834287431       22.43848785287389
C           -7.50214954743728        1.34449277075307       23.80630995238115
H           -8.49651638441219        1.09384752166229       24.15721223561779
C           -6.83933602833572        2.44868620016691       24.32766969581376
H           -7.31640537766013        3.05938943503327       25.08589690344475
C           -5.56613009289457        2.76940698697695       23.88989664335974
H           -5.04012578402156        3.62260360328752       24.30261767405795
C           -0.12751020595596        1.22846473640634       19.16734548181262
C            0.32329435044589        0.65484749800225       18.18635143132905
C            0.79779289734117        0.00348683774530       17.01795626205268
C           -0.04658274230967       -0.18189528459757       15.91830486850275
H           -1.06472365481182        0.18697787393887       15.95840239323091
C            0.41991352455721       -0.83111797783136       14.78693399672220
H           -0.24013081531628       -0.97201462880410       13.93831471183888
C            1.72505260662315       -1.30443383292151       14.73502292369085
H            2.08266190601481       -1.81584995029025       13.84887989943072
C            2.56984603970076       -1.12213223522397       15.82240906624675
H            3.59061280047747       -1.48551481627159       15.78740488552519
C            2.11089801064120       -0.47292590404690       16.95486241476019
H            2.77054421873671       -0.32103339035902       17.80090331197452
C           -0.07218252852642        6.51063091833496       20.11609541733852
C           -1.11797246494318        6.66285486094660       20.71739301765153
C           -2.31837758528646        6.81394320223078       21.45897771770490
C           -3.34678786296952        5.87206314654814       21.32092671626427
H           -3.25558017215550        5.08710466400744       20.57980881511682
C           -4.47306147448612        5.94755003887803       22.12460661512068
H           -5.26070296296456        5.21010876197516       22.01657643612903
C           -4.59127438626763        6.95929732229034       23.06858640551007
H           -5.46893222335063        7.01015740006998       23.70277506212134
C           -3.58408068610356        7.90806324247561       23.19712019065755
H           -3.67677445548741        8.69943493592306       23.93276116472536
C           -2.45442106239213        7.84051885423998       22.39972812802041
H           -1.66350300416904        8.57357654301348       22.50966038756269
C            3.85279989435630        5.60613126977477       19.28065312690383
C            3.53159623987015        5.84850763762196       18.10520254150444
C            3.50885221045786        5.98852351736636       16.69009839213388
C            4.56225586479911        5.44576434328567       15.94434365398593
H            5.37495929804910        4.94375388956430       16.45611736294960
C            4.55419605949296        5.54271004506972       14.56366040472383
H            5.36977406957125        5.11612721408060       13.99060730707323
C            3.50403700844584        6.17686339189184       13.91114590684605
H            3.50004569392881        6.24601886650176       12.82946663667900
C            2.45815769453412        6.71993059418933       14.64649807669014
H            1.63715311518269        7.21424734088869       14.13952128304408
C            2.45883493484628        6.62842947065025       16.02794573019995
H            1.64251125074774        7.04768135232977       16.60545218472728
C            6.60942736046800        4.85794509031233       22.09050165970709
C            7.41459131037570        5.33021073279069       22.88181222740710
C            8.23733035131036        5.85731967590320       23.90666044388670
C            7.87578621882728        7.06728769683118       24.51697357514336
H            7.03362894789358        7.62917665107622       24.13033724972375
C            8.59447197391896        7.53760959651473       25.60292372641273
H            8.30625171639785        8.47090195527197       26.07362402176863
C            9.67164527662447        6.81283685179676       26.09654835826590
H           10.22166285257908        7.17619859027479       26.95707154118348
C           10.04044715891868        5.61822869396086       25.48946798560046
H           10.87802615565890        5.04862007372250       25.87709530231863
C            9.33377532230578        5.14227657122971       24.39931691289371
H            9.60778262636292        4.20290402327283       23.93456241993261
C            6.77496773120178        4.37725810116942       26.67458999676418
C            7.54948983998847        4.60610986202750       27.59279626315916
C            8.36342074269884        4.83862021240922       28.72700504857357
C            8.24576558340921        6.03800405564772       29.43889466312467
H            7.59453090728209        6.81892860187510       29.06310027076371
C            8.95271412073486        6.21772520588401       30.61577312062433
H            8.85369192299015        7.14666067657128       31.16612432149776
C            9.77978190559585        5.21087009491068       31.09844680786616
H           10.32390034073179        5.35329227522815       32.02497673949131
C            9.90909214865287        4.02142839150367       30.39211525050013
H           10.55919097886260        3.23650979586644       30.76184961645427
C            9.20725074128578        3.83324333225142       29.21202967999411
H            9.31139427310710        2.91469896924769       28.64920609498918
C            4.16673514643377        6.02194042401431       24.11563644392820
C            3.71402702797426        6.96508664047605       23.47465059295923
C            3.23591679678096        8.07507999163011       22.73410729245535
C            4.10265121883623        9.11813818523530       22.39069017784060
H            5.13724636560426        9.07846992540588       22.71136206120525
C            3.63585197541587       10.19147259073834       21.65024501381917
H            4.31180951115387       10.99737839362922       21.38726573337659
C            2.30879013350496       10.23738434314144       21.24118312434005
H            1.94877336757528       11.07835974441781       20.65995081309943
C            1.44447332281788        9.20262478404963       21.57487270438322
H            0.40961032393568        9.23223337226636       21.25416017860651
C            1.90086729735469        8.12593095365043       22.31817469236184
H            1.23152494662010        7.31409813311061       22.57760204236597
C            4.01044395098518        6.06388830988096       28.15352336490391
C            4.17518452390798        7.13687278564046       27.58977971292829
C            4.39940851212295        8.38192676996725       26.94978676510300
C            5.58595947382357        9.08240446903211       27.19619793140302
H            6.31097135144340        8.67363010841495       27.89101788861020
C            5.82690769110635       10.28767754834087       26.55896758839880
H            6.74909257441112       10.82407679023650       26.75299749809539
C            4.89066844435078       10.81256880337277       25.67649170204579
H            5.08077521509296       11.75804683247336       25.18165026051881
C            3.71142555087028       10.12221765868762       25.42772964468529
H            2.98097951603729       10.52845187733167       24.73716064797425
C            3.46648132725298        8.91045727233223       26.05139461581934
H            2.55813071828443        8.36021873040299       25.83663212161579
C            5.75648617356225        3.64153911568867       30.83362255466390
C            6.15960869293484        3.45890324127541       31.99335312830339
C            6.37066445091124        3.48804567303511       33.39945426830039
C            5.45997080842404        4.18364214684089       34.20334168575182
H            4.62355535455564        4.69534576450672       33.74188518063682
C            5.62583232162363        4.20514820260097       35.57746379442732
H            4.91528169825216        4.74197046981793       36.19597034573161
C            6.69256648702293        3.53667406264877       36.16565828040776
H            6.81500739970266        3.55180515222618       37.24253682545086
C            7.60114496610629        2.84791576951031       35.37207844545455
H            8.43436789864314        2.32571949338852       35.82877792959025
C            7.44433886627461        2.82408939739632       33.99671698420219
H            8.15041698504396        2.28691863282596       33.37334902115253
C            7.93027928701528        0.18138370621377       30.11366732627343
C            8.32320529452683       -0.92462942419708       29.78887451059430
C            8.75711904208939       -2.22448920224693       29.42050338319766
C            8.41067762359671       -3.32400401676773       30.21550307745263
H            7.84929563974871       -3.16481924550087       31.12898211504565
C            8.78293536095216       -4.60187003253469       29.83580728029731
H            8.51454908787599       -5.44867297166004       30.45758573465006
C            9.49839527594327       -4.80330968372831       28.66090788620959
H            9.80218134132574       -5.80380203443515       28.37485361186364
C            9.83399383674121       -3.71953087547218       27.85976299902591
H           10.38658206846103       -3.87498670783290       26.93991729908415
C            9.46912501147834       -2.43653686039945       28.23333515588103
H            9.74360285542162       -1.59142161128165       27.61449319513506
C            2.09599371634844        2.59439718581388       30.97577891933625
C            2.70417506181606        2.10111837242509       31.91122760297245
C            3.39520069273029        1.52593911578087       33.00787827263100
C            3.03823093553151        1.84079590562192       34.32287768686343
H            2.22112728575111        2.52900246805830       34.50457110076734
C            3.72602685354450        1.27251333975932       35.38226101495001
H            3.44594263948595        1.52167851839944       36.39968247373773
C            4.77345712570340        0.39070976699416       35.14801833992441
H            5.31126842250822       -0.04681759734945       35.98115820935089
C            5.13046987574995        0.07047308148628       33.84426310744723
H            5.94449375261642       -0.62026214516335       33.65574925934946
C            4.44554338243521        0.63064999663929       32.78078314573754
H            4.70875143847169        0.36963748338169       31.76292213547076
C           -0.11682133409221        5.11237818075884       28.66679070255321
C           -0.08408477410960        6.31764103194027       28.88504188383341
C            0.02366379688783        7.70395890747186       29.13526187438251
C           -0.88929298502253        8.36795054491886       29.96308399474282
H           -1.70322706119022        7.81176773246737       30.41233621807869
C           -0.74708829897106        9.72424191846615       30.20158582326626
H           -1.45686415588776       10.23534073959471       30.84249988596750
C            0.30014892103601       10.43249065458876       29.62340695327661
H            0.40540990911158       11.49454857650469       29.81308977021050
C            1.21260727352769        9.77834293697448       28.80417009311761
H            2.03100669294108       10.32722170886021       28.35158346076224
C            1.07772002747235        8.42360879842093       28.56105498715745
H            1.78490576556845        7.90047230606073       27.93126245266630
C           -2.19550996104120        2.40400163556173       26.47807196764455
C           -3.16107310755848        1.65986045691734       26.34250848601093
C           -4.29764449653911        0.82023276091103       26.25509159419361
C           -4.32403310822798       -0.27021165537500       25.38001519055571
H           -3.47711107565479       -0.45463742665595       24.72922789669160
C           -5.42346664687557       -1.10967628918319       25.35415863692183
H           -5.43656124401827       -1.95474494969251       24.67838858363227
C           -6.50767890040161       -0.87796109230755       26.19006502514562
H           -7.36282626228211       -1.54342757356399       26.16568626660055
C           -6.49423196628943        0.20980494266794       27.05351773380629
H           -7.33985640320242        0.39785779765096       27.70535239022340
C           -5.39916258415377        1.05607888342426       27.08852343566203
H           -5.38554798192984        1.90225801674197       27.76489904296104
C           -1.68963764345990       -2.28754320651985       26.15020330128976
C           -2.52340116388733       -2.52214537501620       27.01247443782027
C           -3.42188624874498       -2.78207238155105       28.07597285264305
C           -3.60265233388260       -4.08934943509147       28.54138751595351
H           -3.10517142554801       -4.90865664932208       28.03539908076281
C           -4.40251433841443       -4.32912159546144       29.64574699654793
H           -4.53249903237702       -5.34369232309736       30.00551562899717
C           -5.03243069128485       -3.27665045035270       30.29894210691850
H           -5.65343421253136       -3.46983965261589       31.16602169506329
C           -4.86332934728781       -1.97667366411658       29.83971785657666
H           -5.35722891270028       -1.15250248967355       30.34170264243906
C           -4.06094906851271       -1.72568957551454       28.73724676599266
H           -3.93550289632273       -0.71429175090171       28.37283062662463
C            0.83431581726678       -3.56014091045055       23.31206129633541
C            1.12416061809122       -4.40528962034149       22.47094590985172
C            1.40479971545123       -5.34059957634797       21.44480720311333
C            0.35317934139272       -5.93490622075532       20.73838181092826
H           -0.66938427897027       -5.71433510905567       21.02125671156817
C            0.62148424914764       -6.79424803882636       19.68639626663652
H           -0.19745281757063       -7.24833558107380       19.14000105688182
C            1.93387876599560       -7.06924845931507       19.32369991480932
H            2.13991877122546       -7.73826214753883       18.49626152822441
C            2.98302859198584       -6.48453935444686       20.02278781084112
H            4.00752667135012       -6.70354851236261       19.74533821970651
C            2.72501062354834       -5.62556613872332       21.07943521828388
H            3.53899565257478       -5.17718656345905       21.63602906984697
C            1.44457043986192       -4.32601373923915       27.07536727784408
C            1.51345103295321       -5.22427469003683       26.24733605350900
C            1.56113662595764       -6.24488725973690       25.26607843269308
C            0.36887094729711       -6.81216381026839       24.79939524562713
H           -0.57594856275829       -6.48499724267065       25.21816739890706
C            0.39958698302042       -7.77817726780278       23.80851191302459
H           -0.52747115197448       -8.21009609477025       23.44831125868651
C            1.61262863455320       -8.19050062972425       23.27109155144046
H            1.63366301128089       -8.94391527504241       22.49196915674433
C            2.79828742563162       -7.62720392601278       23.72549515309046
H            3.74447227206277       -7.94259256234306       23.30014758340436
C            2.77859581288456       -6.65894405087393       24.71449851745247
H            3.70320394148272       -6.21010790996606       25.05876333220840
C           -0.54710136359225       -2.59426392275287       30.09574625825264
C           -1.15779393881359       -2.80129851536502       31.15747002340517
C           -1.65526363715172       -3.34648250450454       32.37380924975260
C           -1.00929637217102       -4.45560660735024       32.93190097845737
H           -0.14826992761258       -4.88012250393325       32.42901083466268
C           -1.46628296929213       -4.99670281601905       34.12141923934789
H           -0.96113548205752       -5.85475402225142       34.55066129522573
C           -2.56503742503256       -4.44304461418280       34.76739197170275
H           -2.91718541154551       -4.86838028355766       35.70012796419531
C           -3.21156670626532       -3.34407626803891       34.21622258208209
H           -4.06983925746773       -2.91085999508858       34.71747966960071
C           -2.76173481909013       -2.79848138035442       33.02595591910960
H           -3.26406965460324       -1.94182087324085       32.59108990453293
C           -2.35019936732607        1.13693932399434       30.47357344594409
C           -2.76781027119007        2.28058061106892       30.45764354566226
C           -3.20883630016386        3.62810986051507       30.41990835581045
C           -3.83669673238890        4.12929982433768       29.27205246961593
H           -4.05058289655503        3.46198411070443       28.44701362625996
C           -4.19626004109076        5.46494114583922       29.19887618392803
H           -4.67683500093738        5.84461147621734       28.30398868610010
C           -3.94760248557410        6.31376094851205       30.26959844675875
H           -4.24137465275150        7.35581408878358       30.21517653658197
C           -3.32954564895567        5.82257407473716       31.41440258199632
H           -3.13933325682263        6.48422477705624       32.25215117382407
C           -2.95463145398960        4.49174074552747       31.49115471450123
H           -2.46355809071370        4.11069962401301       32.37904814854079
C            3.20772354374015       -1.62626912375407       30.51925946683041
C            2.50129682847212       -1.53524121484375       31.51042555388440
C            1.67141705980608       -1.43846213739637       32.65587032010534
C            1.72055866665147       -2.41390689309115       33.65648114111180
H            2.42335503127311       -3.23417678976926       33.56933851925447
C            0.87268384524285       -2.32999652164416       34.74888661469233
H            0.91226365771037       -3.09233255831024       35.51893434926487
C           -0.03299476220667       -1.28249082947140       34.85729920179001
H           -0.69961131570452       -1.22717129160025       35.71015238909859
C           -0.08392790867842       -0.30691560694007       33.86951747016614
H           -0.78450084645915        0.51625420774497       33.95160249387116
C            0.76254691306923       -0.38047210688552       32.77644097485574
H            0.73850250999152        0.38851244632753       32.01452599714997
C            5.51377469441884       -3.43777865106182       27.70860840069195
C            5.50486800014187       -4.66307780839332       27.68250104257076
C            5.46411307593522       -6.07633973827709       27.66607613286675
C            4.23514099524622       -6.74157486592569       27.76034809569528
H            3.32400312148766       -6.16404410625742       27.85973719541964
C            4.19093371415161       -8.12453461650927       27.73286703963787
H            3.23576215282260       -8.63290035865066       27.80080176252726
C            5.36379511962182       -8.86032431423046       27.61697889301642
H            5.32527910700491       -9.94329249861293       27.59356474494908
C            6.58811205591983       -8.20695522339287       27.53489182679578
H            7.50460299728441       -8.78066738372774       27.45442413134079
C            6.64352836050542       -6.82320625282898       27.56055764250086
H            7.59487202886484       -6.30895264786463       27.49260855460463
C            7.44450602765579       -0.30681806737551       26.00434321738808
C            8.47009858005665        0.36677597585674       26.01769960099213
C            9.68938774070072        1.08182468347267       26.06807942625676
C           10.37749860336095        1.17948786166248       27.28475152478189
H            9.96621651266199        0.70698749987759       28.16915978371971
C           11.58222425562191        1.85947950501753       27.34808781028231
H           12.11062930189880        1.92943930667482       28.29224772741205
C           12.11284456943591        2.44978191341434       26.20801323936731
H           13.05633328115175        2.98074655535480       26.25991570147314
C           11.43681758190105        2.35095585884521       24.99793194794119
H           11.85872895858729        2.80037832888926       24.10620884678542
C           10.23125892722732        1.67362001012453       24.92306459407932
H            9.70118445322015        1.59447669165760       23.98163337156220
C            5.97098203963586       -2.48271717451655       23.06142164347704
C            6.00717709831902       -3.70833144455938       23.04248401242222
C            6.10763623159680       -5.11669680294864       22.97600608145251
C            6.09695374441782       -5.74826552980981       21.72460107610835
H            5.99949925858604       -5.14946171500195       20.82650055321236
C            6.22803770598422       -7.12378368801752       21.64085938262264
H            6.22859440896889       -7.60669222158565       20.67013782397748
C            6.36094920471526       -7.88525104948107       22.79578355838036
H            6.46253880935095       -8.96216171272114       22.72746204220971
C            6.37349275124674       -7.26367819787553       24.03900251725826
H            6.48290041495583       -7.85787343169247       24.93914027096307
C            6.25090837408653       -5.88794051380292       24.13465887916239
H            6.26728220338388       -5.39951383147490       25.10153355176117
C            7.59514837685351        0.80540902938021       21.30071053434587