512
 energy: -839.184770704495 gnorm: 0.000765622723 xtb: 6.5.1 (579679a)
Au          16.71438804549341       16.28763683643961       24.32294816002750
Au          18.22792196232742       18.56575175610641       22.41468551437046
Au          16.02530441377849       13.97266857474182       22.43861841030144
Au          18.24070612367671       14.02449524636870       24.33141159747312
Au          18.92643920651522       15.87868963380861       26.51345066442563
Au          18.63394793516752       18.36405017950055       25.25409736728301
Au          15.95085695602428       19.12656783991929       24.22960781037933
Au          15.64971481492577       17.42315291324200       21.68334543445329
Au          13.77386402624435       16.74347996887183       23.91766124892951
Au          13.22492723184715       19.86975212599807       24.23404367737997
Au          12.76120745557358       18.10794870797099       21.72508726496054
Au          13.57313434550657       15.44725666988393       21.45880897586362
Au          12.64814121778285       13.95457422638768       23.92231465098615
Au          10.76903176066600       17.41315338618388       23.91126415390108
Au          12.67326279541645       21.64153883224771       20.45978927194863
Au          16.04825778749993       23.13174799285905       21.73725553242254
Au          14.75578948972898       20.37191780217193       21.93927368388820
Au          15.17507414089663       21.86294222789643       24.36514816476013
Au          18.46618574698337       20.91053548965067       24.02764333420789
Au          18.00291833475377       23.27510353602972       25.90843392712917
Au          20.54520231458660       20.36036322084433       26.18569572838341
Au          17.01796352812526       20.56809536809412       26.58889979232013
Au          18.34553520001074       18.38218866228577       28.18852403055433
Au          22.03056505608282       19.41054169791066       28.54722238687675
Au          15.61870646525457       18.83110210247579       29.49596731101052
Au          17.18686378436651       15.65222945408976       29.03637010590250
Au          16.12475498845076       17.65607117233685       26.82934325086331
Au          18.21983005535957       13.13365190245980       20.64025917410830
Au          16.17780536199709       15.12524435532786       19.79526423279272
Au          18.74308569243204       16.46533637797750       18.92420714630367
Au          16.72525519759108       17.78462655448978       17.07609053816582
Au          17.44379049159028       18.64610414591278       19.75841023499044
Au          19.83911362605676       19.13330190444237       18.09847719830168
Au          20.61851311475123       12.91713847875819       18.99201331528598
Au          20.67745413687182       14.29583894025943       21.67278436378681
Au          20.30140362763965       16.14894039489823       23.91052442128311
Au          20.62939722025813       17.16263472177633       21.22395508796621
Au          20.82341094698153       19.11355641601071       23.46705767454728
Au          18.20304848766997       15.74695892611599       21.79042865204536
Au          23.37876214275652       19.83333706198314       25.13489791949847
Au          22.94139363927337       14.88820692550357       24.36028384836868
Au          20.11492101762611       11.40947723995542       22.17810349666510
Au          14.77924329450233       12.46664287739513       20.03674045040240
Au          21.33156221974223       17.67705972957721       26.20573036850773
S           22.99030409172715       20.17011703990417       22.82598540733247
S           23.02781275512654       15.84038066183265       26.50921666831995
S           21.59642785003211       18.87813617817935       19.64458856550284
S           23.13427289078144       14.06448954922073       22.17306215019664
S           18.30022276964194       19.37877942666212       16.30808552255651
S           20.36507094267348       14.94511236785843       17.83576812148544
S           21.09092367499255       10.86645661933459       20.08799431855335
S           19.10804696208987       11.71922115776302       24.26135278950266
S           16.75773874120457       11.19414034908394       19.93527476346258
S           15.07922469022963       16.26591206932046       17.81668213197450
S           12.79151801142214       13.70579444054740       19.88794399393219
S           14.70730182299475       12.89210156785696       24.30182847918645
S           19.05238818839642       14.30086849231025       28.47002312666810
S           15.25012562885180       16.58128735483747       30.07119157640728
S           10.58678836984917       15.07048545492398       23.59805935245097
S           13.73207001562123       17.21101141607361       26.33087489382202
S           10.76109019227508       19.68048500271002       24.52839364937505
S           15.82686242532071       21.06389705519155       28.78497644477713
S           11.38665566966421       19.66848526691749       20.42186146791820
S           15.71331859090530       23.84705189671071       25.68499169303089
S           13.85711772380934       23.67592876448400       20.79107035748757
S           20.21377345319921       22.79797828777427       26.59379835022588
S           18.11088604194028       23.16861672337731       22.97007493449524
S           16.45784980022971       20.87884258819545       20.09119873163448
S           23.98736054123409       20.10588414115550       27.42928074394324
S           20.10236897878663       19.02492551729498       29.79916739254502
C           24.04714249284610       19.09807374313038       21.93018710445610
C           23.97444367118095       17.71473362186864       22.01988451495990
H           23.23014742818959       17.26080163003026       22.66312047028455
C           24.83874360685402       16.91312081966895       21.29263794355946
H           24.76084042021581       15.83498743988197       21.37693032485914
C           25.78968472710301       17.48443143008548       20.45405009406343
C           25.84623049591741       18.87166650818678       20.35126153899740
H           26.57401967934535       19.32920526599611       19.68878860763295
C           24.98883869511237       19.68704094916891       21.07968212220189
C           25.06443802923106       21.18332174119097       20.96049347204345
C           26.74767045328239       16.62025224524615       19.68214657459347
H           26.32000641132482       15.63337649674553       19.50379282684944
H           27.67354131295636       16.49296937203237       20.24782230277059
H           26.99537190662184       17.07613730786977       18.72324878574974
C           24.55043156616220       16.71323750238677       26.51878993286276
C           25.14650339004354       17.17153126971794       25.34790610851177
H           24.67294954927068       16.97021262237168       24.39566163687814
C           26.35106446061273       17.85723691837099       25.37932389325759
H           26.79521975968349       18.19692785586235       24.45043311052368
C           26.98478668094966       18.10135888136121       26.59402873104569
C           26.38471358468127       17.64442168277709       27.76413657653126
H           26.86771022635325       17.83145829025418       28.71782148171365
C           25.17704887863485       16.95516519136405       27.74515132330492
C           24.54862914488131       16.49633126599627       29.02916156247801
C           22.71851728174709       18.01788605612336       18.60646806261238
C           22.94804781264406       16.65791663749057       18.76915434456096
H           22.41803378549708       16.12033310141296       19.54526982511048
C           23.83826755361475       15.97994645919866       17.95345060146303
H           23.99849256925052       14.91878969413853       18.10411224795933
C           24.52182324720746       16.65604427323115       16.94855920251404
C           24.30744036784657       18.02420885482093       16.79956702530666
H           24.84585635859500       18.56578135160199       16.02842549553244
C           23.42118125298871       18.71576783043467       17.61568723906002
C           23.22762058478221       20.19327803342111       17.43137310258886
H           22.23673062418761       20.39690967354922       17.01910922334048
H           23.97501570171577       20.60582563436591       16.75443637780497
H           23.29552890238342       20.70334548958345       18.39295925574960
C           25.46571223343965       15.93044654673635       16.02942991167492
H           26.39771347190653       16.48596740043487       15.91736837914117
H           25.01583868767317       15.82499117345237       15.03969889182438
H           25.69268599058182       14.93529155158900       16.41152581627082
C           23.47369089327125       12.34902171975212       22.21770289009848
C           23.19173998438193       11.56656579999299       23.33191782345179
H           22.79122634541373       12.03767159720443       24.22053589261322
C           23.43253888308159       10.20139181938362       23.31775237083015
H           23.20962134311826        9.61204243454167       24.19988337273718
C           23.95676170125687        9.59307819686465       22.18148745587971
C           24.25771693156427       10.38406065638110       21.07573276721623
H           24.67346554963919        9.92152863217736       20.18634040658372
C           24.02791880398696       11.75464908140746       21.07900891324639
C           24.34855846689093       12.58762521701208       19.87199184428353
H           23.42644952587441       12.99005121270035       19.44429873853357
H           24.85761688509428       12.00060350753429       19.10836858253937
H           24.97561920996418       13.43588387280432       20.15138901825427
C           24.17072807813431        8.10541793709928       22.13321514314615
H           25.08774339773488        7.86233815215124       21.59561533905782
H           23.33702476081230        7.62887354894214       21.61203235361532
H           24.22834891407066        7.68743169775986       23.13818920356237
C           19.06304814269323       18.49674608810341       14.99235833340716
C           20.21467762445872       17.74012941560066       15.17173614286122
H           20.65532542994097       17.65797351706636       16.15833143572803
C           20.80617790843948       17.08376689718543       14.10729562224304
H           21.70841284251552       16.50566216689179       14.27088562024230
C           20.24214097249560       17.15670259212513       12.83677978562180
C           19.09201630490424       17.91922350987445       12.65861654336771
H           18.64763029666459       17.99261609352174       11.67122042059896
C           18.49871217013828       18.59861938749117       13.71682135630643
C           17.27344553948178       19.43757724249610       13.49009117520846
H           16.40770791377625       18.97397372116275       13.96665613098939
H           17.06503421490924       19.54987080387390       12.42665521486150
H           17.40325279261069       20.42469723999043       13.93661531483603
C           20.88166650320445       16.44279556550844       11.67850061198590
H           21.71417056596657       17.03339913082036       11.28952166418046
H           20.16573891088883       16.28811532367542       10.87132803337409
H           21.27355326135912       15.47510936692737       11.99368911923207
C           19.74876434130298       14.49402045199466       16.26050244689088
C           18.42045229593651       14.71773836458764       15.91765691939066
H           17.74107333745556       15.11135222667412       16.66224598838434
C           17.95756169269063       14.44702657441907       14.64244803042219
H           16.92330101395937       14.64957066541109       14.39132043421553
C           18.81420562348118       13.90821039727376       13.68629310593532
C           20.13832564955015       13.66196892612324       14.03715233488545
H           20.81640904171305       13.24003338139444       13.30223962926261
C           20.62224706246122       13.95852683418225       15.30761138034540
C           22.06791281731373       13.72600948271162       15.64078836492523
C           18.30647420815964       13.61322911180351       12.30215577105559
H           17.40935682620708       12.99336996025398       12.35030096539968
H           19.05962157011767       13.09484962813076       11.70933953180177
H           18.04314159824950       14.54309639418282       11.79374668483200
C           20.07008678616800        9.63346139501264       19.37891413920885
C           19.15929845155986        8.93349229076515       20.16226786146738
H           19.04070241988383        9.20062520041266       21.20563546018191
C           18.40595332529399        7.89923325237051       19.63315371541827
H           17.70800239758778        7.36743335075082       20.27014352694291
C           18.54522946447670        7.54664805023011       18.29521327823278
C           19.46094963819387        8.24565496841618       17.51264208689691
H           19.58125313479317        7.97614438235138       16.46821963448413
C           20.22933094878218        9.27933800016786       18.03323982020058
C           21.20619299020966        9.99790533873014       17.14818998792346
H           21.32996674466954        9.47785883782889       16.19878163639530
H           22.17670910975286       10.08643845076523       17.63721002571269
H           20.84263805814782       11.00670125317263       16.94003569507590
C           17.74123429924329        6.42570428863249       17.69790525257809
H           18.37862141511573        5.55526503135690       17.52860436848589
H           17.32183335541159        6.72690141734344       16.73692434123235
H           16.92727881911910        6.13297224549492       18.36078971907686
C           20.40635300226383       11.53267023355392       25.42088035788005
C           20.99053815891339       12.63227214690278       26.03549659280276
H           20.63359648523857       13.62405647319031       25.79389722258862
C           22.00607436879615       12.47786128791338       26.96494312583975
H           22.44004249940253       13.35694297046710       27.42822298503841
C           22.46231530758941       11.20514627137107       27.29323564560325
C           21.86674502859758       10.10236019487527       26.68496591185178
H           22.20443685029526        9.10428271503003       26.94506253916234
C           20.84358113501666       10.24622091619798       25.75454971386511
C           20.22116062892007        9.03860874561727       25.11392635575699
H           19.13381527403773        9.12260936603869       25.12943648964581
H           20.51858182531702        8.12475600933031       25.62715404661835
H           20.53091002426133        8.96705292127813       24.06866196004966
C           23.58559603494877       11.02112221782312       28.27531418628421
H           23.70029059466204       11.90463744153377       28.90318171755820
H           24.52365015277173       10.85750701490407       27.74013238476360
H           23.40501736675139       10.15497937844478       28.91269133395628
C           16.89643120548132       10.84527838095120       18.22434582111593
C           17.76586770117436       11.54741972014398       17.39946183246897
H           18.32014086042537       12.38470446090530       17.80482826616242
C           17.92933880686142       11.19892497909801       16.06999007192374
H           18.62521829115970       11.75250769144495       15.45111373980113
C           17.19540424574993       10.14904050716093       15.52683693251738
C           16.29641618528450        9.46832638428016       16.34420531785607
H           15.70578174372177        8.65848335575344       15.92807636903855
C           16.13878953444293        9.79757410581231       17.68607452514672
C           15.16031029184991        9.04431063809255       18.54073364335604
H           15.63696611829162        8.71942432930473       19.46670165996202
H           14.76785860634131        8.17411566981894       18.01558671746170
H           14.32485164805482        9.69371271061459       18.81244524038307
C           17.38080355889844        9.75433441806504       14.08786392136210
H           17.57083971494174       10.63187798464908       13.46888541121116
H           16.49951368159707        9.23765065065959       13.70764001738723
H           18.23763669552630        9.08299020505330       13.99381354807959
C           14.85651981624323       15.13309959683089       16.50131368798905
C           14.41356771741801       15.56648123867311       15.24389625926981
C           14.18681031542378       14.62609404964650       14.24522783565601
H           13.84855973634190       14.96678722043797       13.27178703588579
C           14.37778472595093       13.26344059110087       14.46232651785260
C           14.81461506685815       12.84532668869342       15.71395849675519
H           14.97262599620561       11.79225272126693       15.91331363384455
C           15.06347446634060       13.77449211865931       16.70853681909002
H           15.43382118134298       13.43846140751599       17.66905870468602
C           14.20632869856423       17.02195894297054       14.94522012128069
H           13.66001778130934       17.50974778294389       15.75163601794683
H           13.66462080268350       17.15934702713871       14.00982436477906
H           15.17405818359503       17.52059453553770       14.85388795455491
C           14.11333435986330       12.27231526262014       13.36309405104271
H           13.03767556540494       12.14096061322546       13.22629314701775
H           14.54960825635600       11.30234932721602       13.60192019509587
H           14.53256574818358       12.62398036042753       12.41921338437750
C           11.55238459905405       12.89613522979118       20.81769028568058
C           11.81274251352615       11.76635947852163       21.58592472723769
H           12.81483479063284       11.35385498458687       21.60482427503859
C           10.80350877599771       11.15818302790534       22.31799946584202
H           11.02907522144091       10.27354655545520       22.90252891619778
C            9.51291553905571       11.67549785452835       22.29712048861945
C            9.25311996427943       12.79524275613239       21.50999929769636
H            8.24617676622273       13.19821788884924       21.47698281985031
C           10.25387190629608       13.41855515484114       20.77622323587351
C            9.95976263034449       14.66275660298270       19.98802991174576
H           10.40430465126820       15.52614007981360       20.48979501477523
H            8.88651540321719       14.82883068922696       19.90039753521680
H           10.39701768346291       14.59937327372100       18.99068009965786
C            8.41347172863764       11.06122014799098       23.11853203255566
H            8.77859373321410       10.20057086821596       23.67846607567968
H            7.59128950371132       10.73894903544172       22.47726181038385
H            8.02024254152810       11.79480722173800       23.82535392707870
C           14.61557918123779       11.19622692372036       23.87588876629394
C           15.58858291549142       10.66135405874200       23.03656446264830
H           16.36807115046574       11.30717324934188       22.65332202873649
C           15.59079640930429        9.32005381138023       22.70188038039397
H           16.35615122093058        8.93945433555378       22.03463620067345
C           14.60987924347399        8.47345146432781       23.21047716961219
C           13.66264177338606        8.99981460900319       24.08325151944277
H           12.90966861937952        8.34425247082224       24.50901726450708
C           13.65512311732153       10.34640527728551       24.43574411906975
C           12.63835313664176       10.85377047690255       25.41713098329621
H           13.12251748635076       11.44417743897453       26.19587091950912
H           12.09657767078402       10.02993439580485       25.88080875988625
H           11.91466281691002       11.49910595091928       24.91518100195367
C           14.59991354312696        7.01626388032364       22.83942629436244
H           14.75316305380658        6.89545650025009       21.76595226596798
H           13.65527230520063        6.54805344456141       23.11520793749700
H           15.40789626274976        6.49278356982558       23.35527481894781
C           18.31979555123776       12.77123976203639       28.01829392279912
C           17.26332860655747       12.68685360708908       27.12029966170776
H           16.84504705108350       13.59459398104813       26.70531706253271
C           16.73522398621902       11.46123397406917       26.75583412881565
H           15.91919088011760       11.42673109387857       26.04614443513036
C           17.25866283761392       10.28357135142429       27.27941077884501
C           18.30390060087718       10.36981291088188       28.19283113929104
H           18.72063958135220        9.46216068382079       28.61770773748134
C           18.83598574484241       11.59734886388823       28.57603569955005
C           19.93760044450908       11.65825120271559       29.59574084809591
H           20.70187754877092       12.37201318999423       29.28761654982464
H           20.39831225329354       10.68088784383374       29.73701414632820
H           19.53402350839943       11.99569622975865       30.55283280571658
C           16.68464838066772        8.95717306386741       26.86218123643283
H           15.68160851517404        8.83465797498368       27.27676826544127
H           17.30616968451962        8.13269855244053       27.21072090599488
H           16.60455191611227        8.90342447400611       25.77508318058220
C           15.57412169657571       16.33084275882743       31.77513097392032
C           15.69881972635856       15.02932685543773       32.27640049507553
C           15.96165220342803       14.85401028966869       33.63005461335908
H           16.07489508568369       13.84594408641148       34.01616143931513
C           16.07994047701897       15.93447920417917       34.50033486261277
C           15.89852368301739       17.21921516363107       33.99757683791888
H           15.95446231817935       18.07708817067665       34.65813016499008
C           15.64995092667053       17.40970670410069       32.64807776578037
C            9.51345953556371       14.49329053206230       24.85887806393158
C            9.99274321115861       13.75648484962812       25.93427379481605
H           11.05826316154760       13.58867974212970       26.03069817740817
C            9.12989416594831       13.23784000544895       26.88417695634590
H            9.52851492928647       12.65807314466658       27.70919881976172
C            7.75980316626844       13.45680175090631       26.77979249570111
C            7.28331230965935       14.20621399491378       25.70802247721585
H            6.21694127361651       14.38532248382346       25.61513167733351
C            8.13915117173562       14.72716935350521       24.74359115649422
C            7.58498860664518       15.53708093983655       23.60711710968446
H            7.78627627223883       16.59707191635834       23.77620261643775
H            6.50760313303579       15.40162650679053       23.51735228176482
H            8.06118261334102       15.25633462598402       22.66740203238322
C            6.81482782094629       12.91427775667035       27.81598934568850
H            7.20453909719485       11.99377205686005       28.25112647063033
H            5.83518899780319       12.71360251687510       27.38187625046586
H            6.68728479145252       13.64240491701665       28.62034615140105
C           13.31879677103517       15.73637188800909       27.18097876195820
C           14.16573557746037       14.63609890579487       27.17660724598523
C           13.86201801626065       13.50433011786292       27.91540074379099
H           14.54532698229961       12.66296939651067       27.91022638990157
C           12.69161196536855       13.45352368903817       28.66635136834309
C           11.83430681120086       14.55176244175809       28.65034212056454
H           10.91642198343210       14.51987616300674       29.22836239258756
C           12.12930858322519       15.69361343383429       27.91455959866001
C           10.16835233207114       20.78850820120729       23.30846811400389
C           10.82791239590835       22.01154255862039       23.19310342475730
H           11.68570546727176       22.20376393292809       23.82478878326804
C           10.40549443979468       22.97853601811895       22.29702056575026
H           10.93620156663159       23.92125572886774       22.23455668596770
C            9.29205279764561       22.74426200318641       21.49134009078562
C            8.62404188862973       21.53272409196351       21.62071397621486
H            7.74971806095491       21.33993926015675       21.00730729221048
C            9.04161330259230       20.54970337435910       22.51562770575158
C            8.28778086339855       19.25460678206184       22.57900523035533
H            8.89295279290667       18.45648858020370       22.14204342506116
H            7.35397806112594       19.31697498347012       22.02123616173965
H            8.06574679283938       18.98676962581897       23.61178637600799
C            8.82904804854526       23.79057549787801       20.51631428329977
H            8.38615212972487       24.63256211820866       21.05230967394780
H            8.08295763505014       23.38612943016923       19.83278997644931
H            9.67112544701060       24.16852228839849       19.93469926002696
C           14.20563449011310       21.49164294186279       28.26225793654638
C           13.31383539925983       20.54490057287446       27.77201168494136
H           13.60906374140536       19.50440178893293       27.71312235241159
C           12.04671501205374       20.91407920457693       27.35521271748253
H           11.35826850257947       20.15495393609545       27.00550648406003
C           11.65957622651965       22.25064486311628       27.37655593258862
C           12.54724616416794       23.19264129512330       27.88743732083272
H           12.24897957291976       24.23493796629064       27.93883743918497
C           13.80754245349143       22.82953275678034       28.35260673879736
C           14.72422759299521       23.86845240676636       28.93181406267874
H           15.29654466577400       23.45187765327103       29.76125940310662
H           14.16204109486081       24.73530009359164       29.27823860199253
H           15.43177864660375       24.20049538789423       28.16859464589718
C           10.30277910383979       22.66197996580544       26.87611845833628
H            9.88307955758777       21.89117064984571       26.22902201079961
H           10.36546206966671       23.59626766758078       26.31682773970637
H            9.62109314459198       22.81457050977572       27.71573872015319
C           11.30627754253774       18.99658021066381       18.80904276445399
C           11.82424096683351       17.73671839848856       18.53431295300249
H           12.38894627585012       17.21403033123314       19.29544781622312
C           11.62027359982272       17.12580567945354       17.30853169524227
H           12.01459001739050       16.12996127593754       17.14127373110909
C           10.90700763362939       17.78309000151404       16.31174432088920
C           10.41694911401415       19.06105665305829       16.57443459294053
H            9.86242664222998       19.58549348625652       15.80271981532914
C           10.59580453748615       19.67365834318165       17.80894197656731
C           10.01224804272927       21.03241080559707       18.06718985572696
H            9.39878956411226       21.01339599058970       18.96924182554573
H            9.40298498745178       21.36575776504662       17.22772060780470
H           10.81035625365570       21.76038808910242       18.22737743664207
C           10.65019413649162       17.13339703251338       14.97987027222289
H           11.14374395773939       16.16376721633165       14.91782696161290
H           11.01587881870401       17.76598158328581       14.16916332459474
H            9.57835987256595       16.98684356969925       14.83290956187204
C           15.58638702168711       25.27043754481452       24.68079330953553
C           14.35228539294527       25.61561135208267       24.11703104214283
C           14.25133828577014       26.78949692725787       23.37810495018527
H           13.29423131260766       27.05168616813996       22.93889273944279
C           15.34079954603934       27.63728673703869       23.20082974936302
C           16.55776210302366       27.29223282486923       23.78411267094989
H           17.41789161630780       27.94308809046163       23.67376310244967
C           16.67431916898392       26.12096513006019       24.51180942367515
H           17.62352578541225       25.85963355040235       24.96400534599396
C           13.14898260836824       24.73717239315133       24.29076398474584
H           13.26760238093070       23.83279937263034       23.68952974698799
H           12.24174547397243       25.24693160827040       23.96847007899132
H           13.03823533112956       24.43231237781419       25.33181668629785
C           15.20549779067260       28.91407709748750       22.41769202556972
H           14.32104594172654       28.88984640328416       21.78135662057122
H           16.08494527672539       29.07774888508970       21.79374855733181
H           15.11389744095146       29.76214385197352       23.09998370981798
C           14.14613042826951       24.28105850072895       19.17372631564406
C           13.44424693414481       23.75650313406634       18.09395476547835
H           12.74254298746390       22.94805809011887       18.26196926900528
C           13.62398858455928       24.24091978388138       16.81031002815129