720
 energy: -1085.323940991027 gnorm: 0.000701407061 xtb: 6.5.1 (579679a)
Au           9.70069304242244       15.40242745791404       26.64548253915124
Au           5.57417312858353       15.96508575589615       26.35077371679902
Au           5.81468606553881       18.19633024166966       28.29076861547396
Au           5.79854150543354       19.04301267683012       25.54124838464342
Au           8.02923177751677       17.59206674474472       26.46032883712848
Au           7.53510814507979       14.33855631830689       24.89866981378492
Au           7.51901872607669       15.76949760619804       28.70771534003741
Au           9.71883692241542       17.61236844101695       29.04853678712838
Au           4.34506306668406       15.49046334274075       28.98480580993195
Au           3.49983590120477       11.76882093584169       25.43360778723869
Au          10.60541220379110       10.52272960085835       25.77323309587245
Au           1.09228557315108       15.81475610415050       28.84079530936001
Au          10.26649989701569       16.45053842221829       31.86205748134452
Au           6.86147133018101       20.13911090827767       23.07708020151065
Au          13.33185624816172       12.78376717031024       24.41826435889253
Au          10.90409181387707       20.21146226187060       29.36590446211248
Au          10.85538037041377       21.90171265466881       26.84380950493286
Au           3.32773257263913       20.39728377067219       32.17584535876885
Au           3.14276082834131       21.64050820546058       28.51751108650179
Au          10.30865182735782       14.75067255992893       29.39429575347635
Au           7.94462287476778       22.99866474419743       29.20009426278641
Au           8.23163282299575       20.01291302742484       28.74826416269247
Au          13.57370372144700       18.92497574554422       28.41273364181754
Au           4.77824272929185       14.33555511668452       24.15431291897397
Au           6.84159465795341       19.57244997946292       33.43813784890815
Au           3.11106806691921       17.35365404243365       27.34182236891000
Au           6.54428979348710       16.97735837368599       23.65794564058199
Au           3.86970875501438       17.34321180571998       24.32093448689271
Au          11.82500809367851       13.43791137909930       26.93570250404343
Au           8.94387873576193       12.70816775335411       26.86407284928013
Au           3.07303998129322       14.51179059086754       26.46470171624314
Au          10.46861993258973       13.61436821375490       24.49955532512337
Au          10.62322536988483       18.52282019708037       25.50075717270196
Au           8.38259216567382       20.47551186741122       25.98945998285083
Au          12.04547107542481       16.45916693850310       28.00812210494530
Au           6.29289484627576       13.44360666290236       27.76256705947878
Au           3.42402286733395       20.31517874707562       24.59924363087121
Au           9.51180178516369       16.58813509028975       23.90928425396113
Au          12.15457396254819       16.23893596737305       25.03102481032419
Au           7.64625980982511       13.44668247529525       22.07334207240351
Au           6.12183776536312       21.23139778791122       27.48131970944022
Au           1.84948636320773       14.09820419228098       23.71450767864673
Au          13.17691083529106       14.86363981467532       30.23976217091468
Au           9.11819725922469       19.19071864387588       31.30734458587278
Au           5.57378681368842       20.28785654659083       30.31349906098793
Au           7.03209839997927       13.59352752462591       30.64079369557395
Au           3.78273731381049       18.14015649459794       30.29880061405741
Au           6.52505416163622       17.70095874476898       31.02876726653414
C           15.09962740676545       21.75073676390330       21.01733371261414
C           15.52201822618775       23.22377550885367       20.92899696727870
H           16.23969568451895       23.47272540072888       21.71085613696887
H           14.65827888263110       23.88347025058293       21.01683482631608
H           15.99241457928445       23.40985418309505       19.96276058372199
C           16.35609490199552       20.87809586511797       20.84773923801140
H           16.86089099104085       21.12491291620256       19.91334540669909
H           16.09684165719490       19.82018084050229       20.82845106879500
H           17.04552209943855       21.05025578188814       21.67453414077504
C           14.11169605734411       21.46243057213951       19.87256560717759
H           13.22749008005587       22.09274760126249       19.97104899915902
H           13.79268805604972       20.42072079834152       19.88402566758723
H           14.57992800169828       21.67007453841820       18.91005405024817
C           13.57122716292931       16.96084908081140       18.26710345386467
C           14.73991107710276       17.86392567191638       17.84696430533226
H           14.60058319882889       18.18178090938508       16.81291596853607
H           15.68798961669801       17.33017040778758       17.91613722431063
H           14.79027641764758       18.75763010960843       18.46895204879489
C           13.50669384354558       15.77864743182207       17.28354804897775
H           13.45715740737731       16.14864118960739       16.25896799786917
H           12.62781797113549       15.16121586101920       17.46494860006689
H           14.39613894799693       15.15677440059631       17.38746421403962
C           12.26912774668697       17.77669041116209       18.18221225538091
H           12.32144284403966       18.62677050378597       18.86317263537923
H           11.40893412472980       17.16638271337415       18.45633215883546
H           12.12117343770922       18.15141748481147       17.16895319590011
C            8.64959647941441       21.64349441084985       19.06131684335672
C           10.08995636201355       22.13710768008371       18.87153089711479
H           10.07988038537365       23.12374238133179       18.40656322344247
H           10.65301924976073       21.46209977388939       18.22666559580476
H           10.60020488514443       22.22011426445845       19.83042763543119
C            7.90149453397962       22.64735139946387       19.95892940321713
H            8.32725091191796       22.64543587838115       20.96205868806587
H            6.84409421828722       22.39397515895057       20.03357086469465
H            7.98372021287954       23.65462791510081       19.54866329408093
C            7.97330993151617       21.58774868336249       17.67953282932271
H            8.03508734973711       22.56172704894002       17.19309485121446
H            6.92217989770732       21.31539566679105       17.76937757982999
H            8.47029679448308       20.84967782274443       17.04956247704202
C            3.76289855725120       18.08919707358226       18.27967176340671
C            4.87956445506342       18.57978571929592       17.34797572424050
H            5.76836562451561       18.85460950276088       17.91468573321602
H            4.53845992892485       19.45818574471962       16.79867162223984
H            5.14935513996744       17.81129849202711       16.62334944065656
C           13.71942084355361       16.43566786525049       19.68955570391858
C            2.57206956359084       17.64122879253996       17.41309820119829
H            2.87550742021050       16.83008738484025       16.75062249498512
H            2.21270246424447       18.47280711400318       16.80619744954657
H            1.75431204643361       17.28534218262122       18.03906949701360
C           -1.59856381607304       19.02453929967555       19.57903933611472
C           -0.93311370023001       18.73155210603746       18.22309395625638
H           -0.84007878590243       17.65827291473981       18.05975057042913
H            0.06174951979990       19.17617193958377       18.19498816769117
H           -1.52645615190861       19.15526550687609       17.41223814948102
C           -1.72415499545585       20.54696051190722       19.73420182414617
H           -2.35044810415040       20.94336759397364       18.93405116699904
H           -0.74859106931381       21.02937546794828       19.67059939632049
H           -2.18643851981065       20.80500660234648       20.68734156316137
C           -3.01444044760756       18.42061715504252       19.59723246737441
H           -2.98825819770097       17.34947328129138       19.39998561348371
H           -3.63285496365166       18.89415668344675       18.83405214849495
H           -3.47893864820412       18.58198022486598       20.57011009445246
C           -3.48676878487287       19.63018601141173       24.89773024425865
C           -3.46039380029863       19.52016701492590       23.36255580912426
H           -4.47489770261094       19.43964291196507       22.97171699407086
H           -2.89695854542267       18.63602421737896       23.06393211743016
H           -2.98838780966186       20.39472147685675       22.91587029734900
C           -4.31060225225551       18.45982950458668       25.45062960651180
H           -4.39891681870599       18.51926736141154       26.53502243221277
H           -3.85830231611646       17.50399703246091       25.18822629651836
H           -5.31512090189162       18.48933776191333       25.02712495855733
C           -4.17106925927753       20.94348019075998       25.31623304995895
H           -4.16414789717750       21.03716585433084       26.40270511437926
H           -5.20522781396343       20.95414831475728       24.97098558006020
H           -3.65653387020853       21.80491735592522       24.89151492023422
C           -3.28740680642310       14.21809487461607       23.06782850621124
C           -4.60225881904280       13.56222469980133       23.52591009244178
H           -4.44202415245133       12.52281466296709       23.81179883077027
H           -5.33489246082437       13.58725325588512       22.71863110249244
H           -5.00835786424422       14.09903213100401       24.38368130878901
C           -3.60155430189869       15.63717832535288       22.57565370055997
H           -4.06382527297396       16.22926945620107       23.36484966924387
H           -4.29818943090352       15.58760417496110       21.73777548139856
H           -2.69730845468097       16.14192115222203       22.23538261606011
C           -2.69619371789644       13.42264612506173       21.89066668329554
H           -1.73502853823847       13.84576671541758       21.59728269497285
H           -3.37003041837274       13.45850320529448       21.03417796244195
H           -2.54427996224300       12.38012229667969       22.16592727515600
C           -3.13913520339270       18.53625199344995       30.40277549297240
C           -4.19596843120154       19.22396732168808       29.52389661455294
H           -4.38358383743467       20.23724990936203       29.87976280071475
H           -5.13052421380104       18.66340311471261       29.55994437480533
H           -3.87612870098493       19.27358753829547       28.48412217077780
C           -3.75880147021104       18.31126210451464       31.79201573182964
H           -3.90228216109371       19.26259489676755       32.30471208451196
H           -3.13130440943330       17.66819962875968       32.40852445607477
H           -4.72952330448178       17.82580138808345       31.68556320072054
C           -2.76944101492374       17.17046228315963       29.79536248076175
H           -3.65394745559754       16.53871704665771       29.71036176441076
H           -2.03717248376388       16.66584385325278       30.42653500332154
H           -2.33595464576231       17.30000780971818       28.80405818331850
C           -2.76691566026065        8.55555413214920       24.06092247088653
C           -3.72515893899968        8.66285252287049       22.86625141991026
H           -4.62569426283336        8.08228438440376       23.07010280130828
H           -3.26638356792698        8.26932474761403       21.95907469893129
H           -4.02025736070475        9.69867124461127       22.69586950024079
C           -3.49660296120367        9.08407813153424       25.30946982249660
H           -3.73767489631604       10.14003083171397       25.18161212413872
H           -2.87942427842976        8.97597707317571       26.20080557089347
H           -4.42389036056151        8.53150319562161       25.46351496348428
C           -2.40141828315433        7.07396596281287       24.26133566815523
H           -3.30579757785267        6.47887695803338       24.39120052735930
H           -1.77342627788836        6.94304805583559       25.14216203531689
H           -1.85994383643070        6.70190628817230       23.39121664690159
C            1.94194934764714       12.95019773961057       34.84832449736462
C            3.26702615330831       12.21646414984666       34.57106815124256
H            4.11854036027376       12.89023017744764       34.66060182526709
H            3.26052722913224       11.80142923861380       33.56293950505459
H            3.39927750233596       11.40100700761589       35.28282077182467
C            1.97917089437783       13.57213690899538       36.25594758525859
H            2.81038371854024       14.27109615586565       36.34931856049609
H            2.09811387879136       12.79278566689122       37.00922553192106
H            1.05174161286423       14.11085414033578       36.45243806072182
C            0.80734972277982       11.91746257818266       34.79643775632430
H            0.99511431669068       11.13291373813584       35.53047126029993
H            0.75077019024576       11.45458399638937       33.81061225029148
H           -0.15320190285546       12.37712608317667       35.02960200345459
C            2.32598257020735       19.69057346123138       39.16359796948723
C            1.68178371012886       21.08777521978637       39.22100440337813
H            0.89337213159839       21.16683692088484       38.47206246848740
H            2.42078104947999       21.86532889673401       39.02957993015479
H            1.24690986415162       21.25985029172411       40.20595359436398
C            1.25950599586085       18.64964466768075       39.53323805615802
H            0.89958383896352       18.84297716671612       40.54448948277212
H            1.67370826492536       17.64144201556212       39.50707100767127
H            0.40784726366962       18.70283781338273       38.85490159769840
C            3.45984075077725       19.60152699335900       40.20006615934838
H            4.22646612906276       20.35231686221605       40.01192129514867
H            3.92273842059035       18.61503774506177       40.16233642273245
H            3.06268818982584       19.75982591756927       41.20317371110585
C            1.38171105652976        9.27094211043307       30.05638333023579
C            2.11357552880223        7.93810791598214       30.26491293588556
H            1.45242707544734        7.11262459328876       29.99830662802458
H            2.41151921572578        7.81095755730839       31.30572555300180
H            2.99918428118856        7.88323747907260       29.63163667726903
C            0.15458768259846        9.31301561184889       30.98464178115341
H           -0.42100600463815       10.22419522551606       30.82283626675172
H            0.47415445917134        9.28632880773057       32.02699421370833
H           -0.49190328529831        8.45575717926167       30.79448193509321
C            0.92375731067289        9.33956729713891       28.58792846800542
H            0.32447035294551       10.22969443275711       28.39931798945457
H            0.32352019101983        8.46331663137573       28.34062057434697
H            1.79297261223387        9.36268128231743       27.93068899875063
C           11.06461095829807        8.69237911298038       32.26763199386679
C            9.96662698083055        7.88190531803572       31.56488956442923
H           10.36770807111654        7.33600876923173       30.71080923172595
H            9.16308961845777        8.53551706208119       31.22443774435849
H            9.54418204884607        7.15794890622386       32.26261109775617
C           12.17339936171595        7.72493410774443       32.71837000672957
H           12.63133529650980        7.25150034942233       31.84910469725266
H           11.75721994570462        6.94738348505744       33.35966965631152
H           12.94787667561376        8.25321767609895       33.27379556172107
C           10.43945937657138        9.37303411834665       33.49789843331805
H            9.65254847640100       10.05866950957208       33.18360591830729
H           11.18341882569840        9.93637869176070       34.06060004381666
H           10.00386958359904        8.62347022626468       34.15931343464025
C           11.31242951851796        7.24181423473889       22.71613983793803
C           10.98381923952025        6.44882192299851       21.43906096635270
H           11.24914409707043        5.39897563916789       21.56658700593781
H           11.54004021812869        6.85125759486149       20.59228110937250
H            9.91830330165318        6.51766761914335       21.21823393990569
C           10.53190076859427        6.64281391571445       23.89853460640863
H           10.91592665445625        5.64844746241307       24.12844378053650
H            9.47070501191932        6.54622505941254       23.67033453336321
H           10.64393897987214        7.26931889243818       24.78460151623696
C           12.81367841991328        7.11781614432683       23.02910395255643
H           13.09389684743932        7.82279277108660       23.81297015197352
H           13.42158034524362        7.31705159529572       22.14707813174263
H           13.04064457096299        6.10760062670494       23.37094130444410
C            4.83592830307079        8.52612642086691       22.50524155897150
C            5.51640123594476        7.39314509557928       21.71557307984293
H            5.65353248359753        6.50424693089348       22.33034915446382
H            6.49190120066274        7.72235504943861       21.35627599521519
H            4.90296782045044        7.11899925270249       20.85689878340513
C            3.52952062936068        8.00848580384308       23.13353938375959
H            2.84709290537491        7.66188923762589       22.35704586244941
H            3.04207831788081        8.80641068610951       23.69429334224199
H            3.73305635322576        7.18264013637247       23.81552652661670
C            4.50647346523693        9.65470611934138       21.51703434199332
H            3.91595820322507        9.25498026978496       20.69184270116691
H            5.41934077324110       10.08900757222874       21.10854540997054
H            3.92381195694829       10.44462268274056       21.99202327821898
C            6.17131562102094        6.01011790727835       28.89992773063388
C            6.60102291981246        5.25978396148946       27.62664243745706
H            5.80477580831244        5.25536446248596       26.88307976530876
H            6.85157918430960        4.22622699099611       27.86798928728007
H            7.47999123205769        5.73626330220582       27.19135356157844
C            4.93398351161829        5.32580184046351       29.50885159917966
H            4.61653402621452        5.85906206264946       30.40538895702588
H            5.16832932339473        4.29596509773847       29.78034080623233
H            4.10661036531376        5.31613652593943       28.79981126660788
C            7.32100050527057        5.92188101833841       29.91330669244894
H            8.22292845135242        6.38828559218294       29.51653511727091
H            7.54358000890127        4.87465669426863       30.12191215475688
H            7.05340148870558        6.40492769310785       30.85313669881899
C           15.80740310586548        8.18521332240226       29.57504223559362
C           17.30379185093166        8.17590230031656       29.21298458481873
H           17.68422260206371        9.18893858616956       29.08684369574224
H           17.46148281992647        7.62737844785020       28.28405865587001
H           17.87649558153037        7.69319402909982       30.00546194219667
C           15.38314005762579        6.74355277812331       29.89058498364900
H           15.99942273182831        6.35325551467078       30.70141639896642
H           15.51403849953813        6.09895116132452       29.02121033639686
H           14.34138967279963        6.70300119423759       30.21008555433056
C           15.58702569615789        9.03841559801337       30.83449528294703
H           16.18307340841126        8.65235510603674       31.66190917573189
H           14.53596836465348        9.01545997771690       31.12052830512913
H           15.87045689688758       10.07450730434091       30.65594182610645
C           10.53698844985149       13.22681382493964       36.40045971993759
C            9.39656018824800       12.77209465305136       37.32117638297346
H            8.49308724706024       13.35338428546193       37.13626308933898
H            9.68864976000602       12.91836916544538       38.36168690872093
H            9.17401305309875       11.71489765094609       37.17514837794322
C           11.78148449318801       12.37882464783783       36.71717821685571
H           12.02916079633119       12.45684299883400       37.77613167517962
H           12.64038027954174       12.71219580188602       36.13566194472416
H           11.58982223255727       11.33172911455876       36.47988448546167
C           10.82545665808817       14.71176485163113       36.68080427346077
H            9.95012861661272       15.31323698059709       36.43384970340589
H           11.66452863535152       15.06676021653002       36.08367945467528
H           11.06405100648594       14.85830996027082       37.73472918802629
C            6.43903432201800       16.59970287695598       37.95376350020842
C            4.99532527200232       16.16045605940078       38.23990569401548
H            4.73630255602347       16.40446453306703       39.27096284474517
H            4.87519847263938       15.08481177613248       38.11064277246572
H            4.29798458536383       16.67728791364378       37.58010021488114
C            6.57088394223376       18.08634437598211       38.32804699933863
H            5.99217245247332       18.70077841206523       37.63865896054627
H            7.60918186229982       18.41459374133678       38.29911926172476
H            6.19605591491884       18.24883449417300       39.33882653723830
C            7.39435207188181       15.76842985289562       38.82793991267957
H            7.16975017235645       15.92238919937245       39.88377774018434
H            8.42935591356496       16.05734527838867       38.64527991431230
H            7.28367663823840       14.70836386444421       38.59918551078596
C           14.85241079700027       16.16436588810697       37.20446049525964
C           14.12500544824299       17.02508986441848       38.24735017150895
H           14.58476229250267       16.87597490650110       39.22509050349308
H           13.07406431282989       16.74339947197242       38.31918973414074
H           14.19360931172543       18.08435064433329       37.99962101421524
C           14.79032157167865       14.69934508602997       37.67011104978913
H           15.32913651114505       14.04270543665072       36.98802300589956
H           13.75295701783428       14.36941042939837       37.72310290595252
H           15.23498410733957       14.60354645759382       38.66115581891527
C           16.32129886975804       16.62061100160117       37.13336168346353
H           16.78195999789851       16.55861868467743       38.11968258060606
H           16.37574306865501       17.65259506529024       36.78602874671394
H           16.88883415025497       15.99342767038040       36.44628417129204
C           18.05056144935754       13.42808074796018       29.71030038250321
C           18.68855831948737       12.38081438305062       28.78770275759638
H           17.93161303453355       11.74527415171655       28.32952146015268
H           19.35774912857540       11.74320536733113       29.36661782785425
H           19.26880694395776       12.86157074311241       27.99986552200977
C           17.20961402789769       12.70722696391747       30.77955811283570
H           16.82544285231317       13.41654461913864       31.51289472235321
H           17.81023497987788       11.96044607374292       31.29928407996318
H           16.36105871501322       12.21209208378926       30.30636861701420
C           19.18687153599225       14.21591076262340       30.38593860516280
H           19.74296821048531       14.78348000672639       29.63950992870327
H           19.87156467615324       13.52780173673466       30.88272935479058
H           18.80087892032931       14.90881100959876       31.13260649026180
C           10.94109386414217       25.72946114414395       22.10919551926815
C           10.11033095070287       26.84917901281223       22.75120255232317
H            9.06848739899388       26.78999677333984       22.43876235971417
H           10.50073264589521       27.81911824701016       22.44077968264099
H           10.15417661034487       26.79485618824883       23.83868126273781
C            8.34437013471706       17.75148362499014       20.96273018728439
C           10.76518927066178       25.80676150579545       20.58134174438252
H            9.72109775183914       25.63503555138369       20.31701385073761
H           11.37592699018670       25.05319021368105       20.08450230785909
H           11.06142662886460       26.79065896677778       20.21668531968452
C            8.96418564533495       12.58840307732864       34.48173851671628
H            8.19158276797658       12.29715362435556       35.18207580238417
C            4.02641852157008       27.22050120696396       22.53120733334896
H            4.08096046499448       28.30342815985589       22.41653170896484
H            4.36499045674406       26.95870935368439       23.53342347635015
H            2.98646337129441       26.90937673773243       22.42864383021790
C            4.38595725232832       26.94161147713634       20.07607397573859
H            3.33406320962391       26.68513217846957       19.95000757574045
H            4.96715493909495       26.45816540742455       19.29050333615026
H            4.48673721223957       28.02139604634701       19.96000939572058
C            6.35439120776008       26.99095800419129       21.59905530652415
H            6.98579456973792       26.44628103353282       20.89625347455081
H            6.72719062258356       26.81721211223715       22.60785649457531
H            6.43224618438279       28.05722363042576       21.38539924399068
C            5.30012873163003       28.29916062596253       26.47117502807585
C            5.75199713923701       28.57174338806111       27.91832361995460
H            6.01986992268692       29.62144356928284       28.04131673621738
H            6.61701417655421       27.95762399323415       28.16772178048600
H            4.94768827727451       28.32999719090704       28.61396556644938
C            5.75965313015306       15.17740174516649       19.79530591581364
H            6.71122789098457       14.68160800500114       19.64715290881852
C            4.08159803341302       29.17993989287376       26.15804403855855
H            4.37846477161012       30.22930938091604       26.16426712159983
H            3.29681613868047       29.04986253787720       26.90304294856913
H            3.67831743871391       28.94265112271622       25.17338809812569
C           10.99905249210356       29.21714866109561       26.73684550604429
C           12.08099117174329       29.43149702440843       25.66876807468512
H           11.73327761798035       29.09705168311068       24.69088914428789
H           12.99710463492802       28.89800589236154       25.92009566228134
H           12.31786621233144       30.49393721833650       25.60099076933916
C            9.78036134505788       30.07384809507852       26.34980612465542
H            8.99976877184950       30.01592825891565       27.10742948263203
H            9.37126418567117       29.73028561816643       25.39939925874863
H           10.07621205067898       31.11793673716508       26.24342545912603
C           11.54702648059794       29.68563714341899       28.09683070795244
H           11.87085995987102       30.72483866251948       28.03410474543413
H           12.39882323772582       29.07153115973113       28.38960340639553
H           10.78292991777956       29.60691952689629       28.86996987190305
C           15.18430290557035       25.68519494115065       27.10531592110452
C           14.50294311808131       26.96030951268802       27.62109421083620
H           14.96120181155044       27.83446882875421       27.15716107887506
H           14.61542258360378       27.04605110486879       28.70214534301321
H           13.44175247072315       26.96465182874330       27.37752067855861
C           16.68987517341591       25.80942869021810       27.40146198806644
H           17.25423959619526       24.99640485701599       26.94666758625589
H           16.86224938279382       25.79410066086179       28.47777439375609
H           17.06946760083659       26.74992266105292       27.00077711402868
C           14.96818006410905       25.57301547938880       25.58630003484485
H           13.90845478750673       25.43672379030270       25.37036870353846
H           15.51384653897216       24.71889958801733       25.18529179614642
H           15.31536272675019       26.47575800599623       25.08295154205327
C            9.13212036809063       26.01049142764149       32.19893209063095
C           10.22279710894388       26.39746700716447       31.18985264767703
H           10.14027868642658       25.80650239214886       30.27748115388441
H           11.21671862964712       26.25484578872791       31.61429502478797