535
 energy: -884.754823641202 gnorm: 0.000580379998 xtb: 6.5.1 (579679a)
Au          27.92210102950389       11.50960229891298       10.28110512882252
Au          30.65599835380707       11.05934215226207       10.38993863424886
Au          30.51587407245572       14.24443278903330        9.99041512282069
Au          28.90372853363044       15.95809127852911        8.34173478188454
Au          28.89771698917297       13.15819950668392        7.96456832549758
Au          26.81728169950086       11.13759932094841        6.84564515244538
Au          29.10397963972176       12.02874869414341        5.44958561866896
Au          29.37157643807160       10.40439323294838        7.74877148319928
Au          27.32452806938926        7.79978697184093        9.09980240323627
Au          24.41648960522181        7.63608890746033        8.91614556393355
Au          22.55941409652807        9.86434789094424        9.99353854369918
Au          23.49509376684291       11.04787529297820        7.65500096531639
Au          25.64760698376640       10.07055453214448        9.43383696030383
Au          25.50438070984172       11.75348371670644       11.73052317269362
Au          27.14881306245153       13.88197762490231       13.17158056042728
Au          29.18322190260624       11.60677969482074       12.84058570036111
Au          28.85824141624174        9.13089990846550       11.47706112819580
Au          27.46178983595622        5.52401465873524       10.95967321236733
Au          26.01896748672048        5.59848621968738        7.53497676037583
Au          24.97128647578405        9.17449166482679        6.17831731462583
Au          24.62964609440365       11.82355075405316        5.17547457935191
Au          26.56418276746680       12.45155900497409        3.07444138563041
Au          22.05959299008247        8.64888875521574        6.17222244513174
Au          21.64155010798578       12.47739000627475        5.65524959043469
Au          20.97927545530496       11.71263957342328        8.53066737857163
Au          23.06281360530143       12.66383741601747       10.19723165659861
Au          25.03744638385356       14.62474493697623       11.36748998372878
Au          25.70048700295443       15.80281752571083        8.63788801403347
Au          26.34492349208012       14.13747819015046        6.48881751686863
Au          25.79916238305752       12.90243632771966        8.98625065014622
Au          23.72481236650148       14.13688266714316        7.49817839371960
Au          27.80618575288845       14.53758984852994       10.49572787740110
Au          26.84704073740076       16.54567436649105       12.29576712277658
Au          24.33113466119692       17.71641346573287       11.25944821995684
Au          22.62203052137577       15.44332797006116       10.15746545857414
Au          22.61096738164932       14.01413233873662       12.62809586845483
Au          21.83844905298034       11.16671859850854       15.12517488868427
Au          23.55138004971490       10.12044621662534       12.92937199171727
Au          26.33262572900380        9.98925177613880       13.74178984867265
Au          24.62303281176905       12.21520989978150       14.40433729442627
Au          24.71051260060058       15.37903134619830       14.33800039189862
Au          30.09089260666887        9.15684965812318       14.22201789529686
Au          32.21622700849314       11.88523309226182       12.68361809935322
Au          24.16353702058908        8.04115931732189       14.93386154388532
Au          25.69266146362441        7.98290925234892       11.40124513051355
Au          19.98829140921412       15.04575856546785        8.92147555406136
Au          28.44582534409608       18.44584176082309        9.81790161632556
Au          29.35515857531869       15.02360739696551        5.45301620770217
Au          32.03356106790677       13.28668343836255        7.63296374864619
S           29.62804952240219        7.99715576992445        8.24630435212380
S           28.87616162688104        6.79179174040362       12.36498280761681
S           26.08989652193282        4.25444098609995        9.49023199141083
S           26.00043926125212        6.98809510330013        5.64038511713051
S           28.78521978518786       11.56414802619482        3.07755853090323
S           24.29635779897733       13.17519855986037        3.09175088590279
S           22.55446002411900        6.79305989773712        7.51492698749927
S           21.73935397569810       10.35303106185785        4.58450353080566
S           21.47307060747278       14.65949546367278        6.57395738200805
S           21.19696529431085       13.33731635906940       14.51326982106290
S           25.36862242502565       13.88490407474832       16.12148394273770
S           23.17432843609757       16.91903363802814       13.16690959546674
S           27.95381718143656        8.79318150836395       15.17959938152354
S           32.27897436477004        9.62014534628884       13.37884461193458
S           32.09222077692711       14.09548222163067       11.88078007441969
S           25.65524260059793        6.81682353787864       13.60176982025011
S           22.40811256898371        9.09214240308117       16.11584469383262
S           22.10337173042111        8.37878788165514       11.90894391359616
S           18.90327512984202       12.90667576723792        8.90509979391156
S           21.03707634868377       17.15100827884800        9.30685499972293
S           25.63896614483492       18.19870682982276        9.34581536296892
S           28.38157528261369       18.44378330821439       12.21051250339981
S           28.75393501369517       18.27929651989675        7.46128384315975
S           27.28933977328438       14.88660514732618        4.30436979382780
S           31.46520109662719       15.28285906830888        6.52021707184873
S           32.68305326815441       11.48728825353808        8.99262814874630
S           28.66519736913664       12.92016967540923       14.86560481786729
C           29.75862437127836       12.65404968381942        2.11988019031456
C           31.14231005041873       12.74484527340705        2.31287978070498
C           31.88935043918701       13.57118329583821        1.47868254385498
H           32.96143934111458       13.63815717269782        1.63369316211686
C           31.30093991494667       14.29923689335250        0.45070228319008
C           29.92507865829065       14.19195672887790        0.26071782868569
H           29.44224373604278       14.73918104794407       -0.54130921534323
C           29.16985190205892       13.37852645150645        1.08647585738808
H           28.10297989925206       13.28566208320859        0.92110532856597
C           32.12391730252406       15.17644236864076       -0.45260654525407
H           33.18204470666901       15.11746007241236       -0.19843821337444
H           31.80176410829486       16.21610038786607       -0.36807548745219
H           31.99871533951698       14.87136849867593       -1.49316796281487
C           31.83395125473539       11.97077456672963        3.39639105394780
H           31.54350708056430       12.36048129654957        4.37549202083292
H           32.91686460155794       12.04998900372258        3.30727545218086
H           31.54795230878322       10.91922787681968        3.36106900897471
C           23.35726557966957       12.09862485937345        2.07691653399739
C           22.08277438108308       12.52025740286270        1.67979762585853
C           21.30906266261724       11.68469026602877        0.88383234320781
H           20.31896654947692       12.01215830283880        0.58303167743900
C           21.77130628191519       10.43707125639440        0.47364243959157
C           23.04271953723846       10.03241919704373        0.86958432028482
H           23.42987662499199        9.06858683693710        0.55772218115435
C           23.82358043079897       10.85819242912653        1.66061391184338
H           24.81210895390077       10.53600798289006        1.96372969539266
C           20.92032626084136        9.55676231949723       -0.39960128310695
H           19.86427278034798        9.67537169108387       -0.15567820370467
H           21.19430011223282        8.50844874373640       -0.27843604800382
H           21.05860113055144        9.82634453083244       -1.44919094567654
C           21.55812921249278       13.85729227695286        2.11738491335540
H           21.43621646148675       13.87129349071892        3.20293141543849
H           20.59457587357812       14.07565786944418        1.65807675313012
H           22.26654590038626       14.64695321388539        1.86142298915128
C           21.21989175749230        6.53494198886798        8.61598918496873
C           21.12204052947684        5.28310934298799        9.23187795790754
C           20.07759544208829        5.05348792868145       10.12035468312474
H           19.99043328748862        4.08036873755557       10.59283592844164
C           19.13623681739498        6.03817008758670       10.40985267251618
C           19.24138925671159        7.27427660479885        9.77857432853387
H           18.51933554824081        8.05648079532089        9.98447396473061
C           20.27528501197790        7.51579401868340        8.89009472682669
H           20.34920404776234        8.47800332927982        8.39711500996157
C           18.00694939966021        5.76105663774611       11.36297442449603
H           17.13101559855065        5.41251672515286       10.81101889369448
H           17.72800796683837        6.66521122086565       11.90449201101434
H           18.28488841971528        4.99084482252051       12.08251709471101
C           22.12721446996430        4.20896470581258        8.92393526215137
H           22.25253413632203        4.10972334515349        7.84424174655716
H           21.81537748394181        3.24902347936526        9.33424809639614
H           23.10236372950175        4.46798958416356        9.34415063714546
C           21.72699444989184       15.75307706843166        5.22022697706378
C           20.64150373703329       16.47971860065784        4.71847718493634
C           20.85278709991806       17.36426701074860        3.66631813564894
H           20.01303662180991       17.93345169828616        3.28102083504606
C           22.11114097973285       17.52777744066723        3.09260018651111
C           23.17551454263134       16.78497292117954        3.59199621813684
H           24.16066423059665       16.88199555624586        3.15361023378130
C           22.98347220290780       15.91427064246149        4.65067519490462
H           23.82116254917694       15.34180499144526        5.02854647274395
C           22.31499390710403       18.50154854881486        1.96572558307953
H           21.51092097647023       18.42054324871018        1.23340209748334
H           23.26733617320153       18.32359165813874        1.46647292094192
H           22.31598989031038       19.52313478102532        2.35293955829248
C           19.26922091668359       16.31033047823963        5.30218873084722
H           18.97235895436330       15.26074771859526        5.26628138481580
H           18.53505357532379       16.90348399843231        4.75799702208497
H           19.26319984940343       16.62146556416223        6.34845212906727
C           22.80488857593023       18.18529991024866       14.31893166480899
C           22.04297153280886       17.88404836621060       15.45309548177046
C           21.77464314535898       18.89760935679438       16.36681870908043
H           21.19608311265296       18.66328700336460       17.25457242161534
C           22.21652280892692       20.20125426757997       16.16184345386191
C           22.94481157475855       20.48847637487745       15.01051339402535
H           23.28065307766149       21.50082080993383       14.81911403420243
C           23.24649739140314       19.48502990524555       14.10616626497712
H           23.82873143684485       19.71193408936961       13.22013777478160
C           21.92696670188371       21.27835162159204       17.17025536377314
H           21.04827033171820       21.02967178751070       17.76527919742306
H           21.76049104266612       22.23584054365480       16.67595432541840
H           22.77699122320263       21.39065416704624       17.84721366597235
C           21.49502489707181       16.50642639193248       15.67835542727867
H           20.90552709733420       16.19029628178270       14.81686260110867
H           20.86744609113034       16.47421138343870       16.56837866479897
H           22.30202579070198       15.78254859915225       15.80149287732610
C           24.08973848294704       14.20847805000246       17.27576528574638
C           24.00506872870110       15.45471605295083       17.91044720554993
C           22.97603862408187       15.67939109426233       18.81886539684686
H           22.90258015883875       16.65007715168904       19.29891171864818
C           22.03777203788101       14.69638443221084       19.12000790522317
C           22.15859925581821       13.44983522744725       18.51313922369087
H           21.45414337401501       12.65975280984126       18.74537780477540
C           23.17741231036842       13.21409460780893       17.60790775411489
H           23.27362281448638       12.23910189511264       17.14638075361966
C           20.93076771929353       14.96771169952263       20.10052721219009
H           21.27166623378423       14.75375583087274       21.11615597397510
H           20.06671131568087       14.33632639642800       19.89239312827704
H           20.62335504531783       16.01293067939880       20.05927850120973
C           24.99074647670745       16.54938159994003       17.61744001847729
H           26.00506240544776       16.15185144796240       17.58012840465028
H           24.93889265174518       17.33287132540690       18.37289490252641
H           24.77363102125948       16.99963784605577       16.64563726021901
C           33.62726112175100       14.50789629739018       11.15288733651442
C           33.86478580552794       15.84963469821376       10.83350351848225
C           35.09340244042414       16.20787661661331       10.29029811574991
H           35.27896761877558       17.25024361241114       10.05145031515587
C           36.08556970529024       15.26175962368172       10.04960855400872
C           35.82899947955737       13.92813816522705       10.35854163464922
H           36.58296518034454       13.17180249606960       10.17100765097655
C           34.61168589881387       13.55896855128325       10.90402102159385
H           34.41601029418284       12.51722622911554       11.13053267387588
C           37.41656681093908       15.66804542166395        9.47853418014458
H           37.36649562012249       16.66505800577970        9.04095361901050
H           37.73803801400371       14.96185537517206        8.71199571360289
H           38.17332079976534       15.67706786667679       10.26614384097501
C           32.80410321133019       16.88522186943612       11.06282602146698
H           31.95942172716435       16.70467928332095       10.39298293806172
H           33.18541621034203       17.88916574461834       10.88039000765357
H           32.42653614062680       16.82561095542084       12.08414310855042
C           33.26001984356001        9.51928094973284       14.82733214796519
C           33.50377951669461        8.25994096357153       15.38591391427460
C           34.26727711010783        8.17369625836605       16.54413819437204
H           34.45064384667622        7.19741937848571       16.98140310531571
C           34.79884669599457        9.30687455287431       17.15327192518352
C           34.57004425045945       10.55017810041745       16.57083251822893
H           34.98345484659086       11.44716375611773       17.01829040863561
C           33.80663706219656       10.65045083114347       15.41974636612770
H           33.63177585471089       11.62208905965385       14.97189257919376
C           35.62755995338625        9.18722169027868       18.40250016900811
H           35.34662013957234        8.30133638493049       18.97223582138565
H           35.50456229396551       10.06746651316266       19.03395168964096
H           36.68495752936763        9.10265230567214       18.14125937941683
C           32.94988663944489        7.01916739714308       14.74755617984430
H           31.86431074619959        6.98617184712859       14.86663939586557
H           33.37271185006385        6.12132420343824       15.19724047459040
H           33.16106292483714        7.01727655542844       13.67728971899193
C           28.08191363384033        9.73197588892909       16.65333845330795
C           28.88854918855613        9.26559938635016       17.69879958559578
C           28.99675048329981       10.02363863640466       18.85871006135639
H           29.62697783143616        9.66264413700736       19.66526268281212
C           28.32473609846887       11.23569506483488       19.00869979022084
C           27.51142621761136       11.67871611561067       17.97030691572674
H           26.97364113301784       12.61781569495006       18.04496397917091
C           27.39557941940996       10.92786473458414       16.81302466679615
H           26.77178325846234       11.29237813071956       16.00860979880277
C           28.46160096376832       12.03341335202104       20.27613587136899
H           29.49006878410940       12.01196687154445       20.63799678626651
H           27.82109344023025       11.61122386227099       21.05420764572520
H           28.16469070413876       13.06966727937795       20.11526623812902
C           29.64362819210446        7.97378630489167       17.56900169336820
H           29.00639410210988        7.20195869710178       17.13543239627171
H           30.01182640343394        7.63513489570456       18.53703957801118
H           30.50033736261900        8.10807091096943       16.90359765603917
C           24.75007109554293        5.33022476753034       13.34616964572482
C           25.13302677781692        4.19908756119640       14.07132518473146
C           24.43250997319353        3.01100964191263       13.88794366504455
H           24.73400880693074        2.12996007531581       14.44522976126170
C           23.35264909907881        2.93516493274789       13.01414228668590
C           22.97595657929345        4.07763801864459       12.31287311343695
H           22.12317265650860        4.04367032172127       11.64721524900418
C           23.67652722538639        5.26067706958244       12.46757806632755
H           23.37592146515155        6.14445157152093       11.91575307669206
C           22.58590110810237        1.65328728410963       12.84019545643557
H           23.15751169267033        0.80221515292474       13.20990604623142
H           22.34819039652354        1.48886284891844       11.78843996011995
H           21.64583056698568        1.70286758243570       13.39410974537578
C           26.26698303423305        4.26920341867633       15.05457997199042
H           27.08821013170903        4.85744174239412       14.64431107383001
H           26.62862505630842        3.27340807454186       15.30921154206187
H           25.93478783203773        4.76419915472012       15.96983031958409
C           22.97925878708292        9.61235030968992       17.68975201985235
C           22.03306857274269        9.87292859080534       18.68742418905948
C           22.47112776101259       10.29810616998508       19.93567471185040
H           21.73940832570170       10.50533535761174       20.70993647365961
C           23.82648119799855       10.46429485812113       20.21248532356664
C           24.75370441589634       10.17838855511193       19.21699633659885
H           25.81341352344164       10.29006487235540       19.41226975278254
C           24.33196561009173        9.76113785698208       17.96532691501982
H           25.06126508674941        9.55558266230348       17.19014118924566
C           24.26705105703676       10.95022215725480       21.56531761565707
H           23.84304119898844       11.93549545025985       21.76817208585745
H           25.35337613925018       11.02188284129389       21.61856456195531
H           23.92351776501504       10.26901236611554       22.34580617664293
C           20.56608354920952        9.70190085376444       18.41191208138101
H           20.22360177140907       10.46804519969682       17.71261849016930
H           19.98289266649227        9.78445634078752       19.32848469886330
H           20.37775570115996        8.73073015308010       17.95185294574441
C           20.49703389859997        8.74930628523604       12.49964467801307
C           19.93519506046212        7.90461871471097       13.46334709152528
C           18.66873213750646        8.19348646925751       13.96267823250458
H           18.24477000635314        7.54767796155929       14.72486996544643
C           17.93823168476168        9.28462611985915       13.50373495363455
C           18.49376424873960       10.09276845467454       12.51511357157256
H           17.93452118867502       10.93368334264191       12.12319142209176
C           19.76360876910890        9.83454019150147       12.03318254709594
H           20.19406166712559       10.48482246480769       11.28108778792706
C           16.57765890365277        9.60330022567949       14.05869367809848
H           16.25110257275974        8.83895272106938       14.76339696234882
H           15.84446242180937        9.67577521680197       13.25362834322336
H           16.60313396759009       10.56538820227360       14.57531033499338
C           20.68417027526847        6.69657961413601       13.94524203424090
H           20.95857634796867        6.06196630875290       13.10106858510597
H           20.08806401666662        6.11612741512548       14.64864303564805
H           21.60921981134796        7.00007519270694       14.43982837666842
C           19.53585000219066       13.30932102897279       13.96115346105582
C           18.51016106193516       13.26916483684493       14.91091004622043
C           17.18888854239477       13.32431361832123       14.47960079621232
H           16.39349767885509       13.29977879008207       15.21760071401827
C           16.86761916550212       13.42173954747075       13.12895169001435
C           17.90025238414963       13.46014119968190       12.19547304291024
H           17.67921278710682       13.52558068129055       11.13608416012040
C           19.21975389053031       13.40126320668679       12.61153681833208
H           20.01670230002448       13.41882038052429       11.87769096154903
C           15.43577782261278       13.49492800952296       12.67660817727375
H           14.75703464992944       13.19558093849458       13.47497009565314
H           15.27374652896099       12.84728703207142       11.81406532317092
H           15.19007069026637       14.51704002142615       12.38055211136390
C           18.82674019877085       13.17104762051186       16.37618393586662
H           19.24738065208340       12.18842720374285       16.60237007433958
H           17.93224655692132       13.31246808455964       16.98199898742508
H           19.57069117190446       13.91895577732197       16.65580566280824
C           17.87397494898113       12.82583833456137        7.49649287447955
C           17.53072363102678       11.59870034021300        6.91699901200765
C           16.63734358831773       11.58227341567671        5.84992764251071
H           16.37418675399541       10.62874467292125        5.40335096446708
C           16.06815827364149       12.74927761323504        5.35239340257530
C           16.41344681918799       13.96367219733199        5.94117954875738
H           15.97865644532805       14.88809410225296        5.57754058462485
C           17.30418788826602       13.99538498748538        6.99924993730891
H           17.55203360842716       14.94035701244217        7.46801016092574
C           15.08138866185189       12.71139131273655        4.21751261632547
H           14.96506349140767       11.69832483709614        3.83282913664104
H           15.40983774023496       13.36019346435746        3.40376759883612
H           14.10593327013242       13.06683343042234        4.55570422655120
C           18.10032661463626       10.30562930374771        7.42250213288786
H           19.17124478105022       10.26099631201136        7.20773754451337
H           17.62266501750578        9.45129744004277        6.94408884835542
H           17.97603131268516       10.22555442893754        8.50276794676813
C           20.43266350640529       17.76967781689008       10.83325685002600
C           20.69962325567226       19.10906412617730       11.13837365578001
C           20.23574612734603       19.63730342671093       12.33714817275131
H           20.44711091065156       20.67550324850744       12.57260799369712
C           19.51156696591239       18.86435012143971       13.24032136222695
C           19.25953567831472       17.53096267739957       12.92879443151054
H           18.69801898662209       16.90641726288658       13.61494263633504
C           19.71879233220869       16.99340590736406       11.73845371546489
H           19.51948150087861       15.95322985905783       11.51043347489959
C           18.98731914747745       19.46509890579425       14.51527945725276
H           19.59516684263925       20.31568856754244       14.82367301388579
H           18.98171750814299       18.72683845597623       15.31753991521474
H           17.96239102897582       19.81351335803600       14.36791378050729
C           21.48583979421392       19.95882424821600       10.18053816940285
H           22.50606054811234       19.57692664870426       10.09537939600371
H           21.53073901486280       20.99492172739762       10.51449202767050
H           21.04227967331119       19.92023817807847        9.18418062131424
C           24.55617690272406       19.01295326321130        8.22165556101488
C           24.62014020728206       20.40419453004365        8.09054465204383
C           23.76830285439767       21.03577639052522        7.19061058736132
H           23.82183892774374       22.11441676937828        7.08445754136943
C           22.84478288398287       20.31862182961408        6.43453951874768
C           22.78584016684151       18.93768360472347        6.58547275064472
H           22.06774146695591       18.35806940016273        6.01937557943984
C           23.63971148449674       18.29493245113458        7.46438757862309
H           23.58547445633438       17.21900399966302        7.56902572210982
C           21.94125645762215       21.02248458975802        5.46076336115169
H           21.10614704041662       20.38289974676265        5.17513224155690
H           22.49807942639040       21.28212138128024        4.55739717897185
H           21.54999231792000       21.94466465818574        5.89170394716363
C           25.58913918163326       21.20633752633212        8.90883293319689
H           25.41386331431159       21.03262381216276        9.97196305945750
H           25.48834604519106       22.27168457216610        8.70464061263294
H           26.61326244508308       20.90173192000741        8.68644054869568
C           30.43207565684482       18.60955491218547        7.07951036833033
C           30.76893356696696       18.80623467184112        5.73522158973558
C           32.09272784424849       19.06009839172996        5.39760618312105
H           32.35124452719482       19.20719140942371        4.35380285987817
C           33.09163498828872       19.11875601944651        6.36526545780961
C           32.74304555101704       18.92470731125329        7.69898324871438
H           33.50202123619491       18.97043483487643        8.47234819107396
C           31.42621750832242       18.67627112655850        8.04770253088090
H           31.16264418633549       18.52899375052796        9.08815783879356
C           34.51543903107480       19.41116067920809        5.97927548593448
H           34.72485128667530       19.05455803345551        4.97064994545360
H           35.21026338120362       18.93619087423414        6.67243649817355
H           34.69456453887718       20.48859025626449        6.00356162631939
C           29.71088361107320       18.73408520460985        4.67222488887504
H           29.29730701113411       17.72368451417469        4.62783019904225
H           30.11469551166396       18.98633616974233        3.69223245703097
H           28.88710780076458       19.41011803713837        4.90733887804295
C           27.49019042976357       19.84799407680276       12.74247606956445
C           26.95325872649200       19.89447565065650       14.03492684169633
C           26.28556446870316       21.04305983929554       14.44812573641057
H           25.87133700881063       21.07451985934721       15.45079167451657
C           26.14642849658364       22.14821376465023       13.61532156830502
C           26.70485519850725       22.09785682828509       12.34018697972208
H           26.62626104623113       22.95286323029624       11.67788065952123
C           27.36942575532743       20.96093579746951       11.91565018615147
H           27.81880444651665       20.93357275017889       10.93015542996785
C           25.41318358828103       23.37909675818973       14.07337006344478
H           24.48731302074258       23.49771945818968       13.50655984909370
H           26.02217809852629       24.26958208297505       13.90946869387467
H           25.16501283922275       23.31562773673912       15.13265952527333
C           27.08425102653531       18.73287234547936       14.97581833847629
H           26.44954235970421       17.90795865002701       14.64062874843278
H           26.77799685033091       19.00814253423489       15.98460319710649
H           28.11128689969799       18.36753894621846       14.99892300346370
C           32.85438660810326       10.07188012520880        7.97943249705288