142
 energy: -218.938326900067 gnorm: 0.000342754731 xtb: 6.5.1 (579679a)
Au           4.20763977757735        2.54041059538140        3.72315820686308
Au           6.08122385726452        4.29810540147259        3.27272773610243
Au           6.36115562137607        2.71915650371578        5.73423282227440
Au           4.58844875333057        4.61747358389881        5.73506264553646
I            5.40524320284125        3.65666580731865        8.38149159135467
I            5.14014069959732        2.84828479552941        0.94995436956860
P            2.53556868718189        0.93623867884788        4.20823672551108
P            7.72358728092467        6.04230132514024        3.36016092771461
P            7.59133078366768        0.68155131897758        5.75729695156923
P            2.68060326408145        6.03120368438008        5.70985938980768
C            0.98269344283206        1.14601736145567        3.28512415027108
C            0.12156634998547        2.18071526973244        3.66625347933723
C           -1.00285652378911        2.47683863699074        2.91399067185068
C           -1.28008934161236        1.75063886766096        1.76238689711356
C           -0.42737087453576        0.72806158762149        1.36960054204495
C            0.69931350948031        0.42986466829436        2.12159342944523
C            1.96605836256205        0.79344181639303        5.93548992226513
C            2.83847573941936        1.21417790901312        6.93769900293943
C            2.47985638429030        1.15289019148284        8.27388004911244
C            1.23600273609630        0.65254024056881        8.63215165293579
C            0.35348441398747        0.23195163199349        7.64462814766842
C            0.70966522761747        0.30546246964035        6.30624784789761
C            3.10195021378938       -0.74840653233800        3.80371693341924
C            2.57269262771753       -1.90465670330307        4.37988980604207
C            3.09053224546583       -3.14955491442439        4.05655650610158
C            4.14884938009470       -3.25738660659237        3.16264492822271
C            4.68603555457297       -2.11375249613947        2.58763495704528
C            4.16384699635065       -0.87015043507370        2.90558732199425
C            9.26612267804612        6.22358904809058        2.39178483066805
C           10.48324579888890        6.63103118767641        2.94080411154858
C           11.61290182103036        6.73480337106279        2.14295254191317
C           11.54300077523053        6.43255143149536        0.78971028953356
C           10.33853827217483        6.02078903424875        0.23441552591973
C            9.20965431483267        5.91340989302296        1.03110926369783
C            8.32423428172141        5.94147934837193        5.07792076322707
C            9.09517007951170        4.82644225442003        5.42686690461250
C            9.43473421120837        4.58390501512983        6.74760837763248
C            8.99682131492341        5.44371472673809        7.74724969238106
C            8.22722675096143        6.54903959524781        7.41540670779494
C            7.89177244714655        6.79592490937054        6.09164961832357
C            6.98129243662527        7.70677273568993        3.27961999760469
C            7.72501019431655        8.88476410163364        3.38353864006052
C            7.09480862003140       10.11882661797906        3.34387241674154
C            5.71577188531372       10.19547749613191        3.19444736796400
C            4.96833206143454        9.03206894105375        3.07715546902729
C            5.59831481111110        7.79769638272312        3.11870053526213
C            9.14762624730302        0.54821859297996        6.69914485606668
C            8.03649749790383       -0.03843631866534        4.14167620057368
C            6.50861475293915       -0.58296955147469        6.49827837543044
C            1.28442179442408        5.22153405909488        6.55450122514666
C            2.00445079330102        6.38520430059050        4.05202452532154
C            2.78935149699153        7.67746175027547        6.48350990630728
C           10.30107961890579        1.10927445433570        6.13992960563743
C            9.21297234384560        0.03639906586034        7.99536645566549
C            7.43733153000561        0.49425921916176        3.00214164910572
C            8.92509583052741       -1.10756518104996        3.98933239491341
C            6.24517276996221       -1.82151708238874        5.91223790124667
C            5.84541393797470       -0.24676415868913        7.68278958774262
C            0.00663428211188        5.10106358635414        6.00447818357206
C            1.54685593843886        4.61656540176484        7.78688157903934
C            1.91020609793861        5.31775031084569        3.15491392836343
C            1.64982063706835        7.66068925649545        3.60989151521968
C            1.74766187864949        8.27770253277522        7.19230151724902
C            4.00714377179369        8.35229057398822        6.37150601076237
C           11.48992486542644        1.13858048592068        6.85098929106177
C           10.40328632286331        0.06849875937369        8.70663449275315
C            7.69377162891688       -0.02476117027245        1.74376684819841
C            9.18538072116498       -1.62753908940162        2.73038204112866
C            5.35564886440407       -2.70583994550615        6.50385341575250
C            4.96264984392471       -1.13518404817786        8.27582629289827
C           -0.98369988775064        4.39568657817956        6.67301998859389
C            0.55120955196754        3.92898136230222        8.46084056360870
C            1.47319772176839        5.51224724872101        1.85630014962828
C            1.21643648646517        7.85795990695615        2.30606689216745
C            1.92057323071032        9.52946804435351        7.76393111657037
C            4.17587173888278        9.60674592625196        6.93430265663290
C           11.54371569107258        0.61834090912134        8.13815467147274
C            8.56830961095038       -1.09288107527286        1.60534302051833
C            4.71381480109453       -2.36751848164127        7.68681722263729
C           -0.71524305415746        3.81145825357522        7.90312308159104
C            1.12846163392654        6.78760820897323        1.42685341275085
C            3.13084345844364       10.19755225632388        7.63280855353381
H           -1.66292073150809        3.27956125713518        3.22415189549825
H           -2.15808922632287        1.98413730785539        1.17076306094354
H            0.33546488735632        2.75451601959075        4.56221627343026
H           10.26453000901522        1.51764317406378        5.13516198488214
H            8.32987757700631       -0.39685862394911        8.45134886061333
H            5.01474949920486        6.88862015722183        3.02586519116398
H            6.75882560237269        1.33266979610972        3.09544285568203
H            7.28007196671017        7.65738360060707        5.84851534519147
H            9.41610932038451       -1.53081115621355        4.85885969140860
H            6.72971915192968       -2.09833889407797        4.98280739368927
H           -0.21599652336923        5.55797648032255        5.04688312018438
H            6.00330240700319        0.73225137521251        8.12643926056629
H            5.22550062742206       11.16207548979950        3.16577195251864
H            8.80255698956075        8.83430772266725        3.49711782253469
H            7.68212558318785       11.02631907689134        3.43060096648443
H            3.89248489413909        9.08397442266107        2.95296135296733
H            0.76717977075480        3.46862684882055        9.41828028804798
H            4.82596987670280        7.88369240434924        5.83569772190186
H            1.70744388041046        8.50394328860120        4.28891121709125
H            0.79418419079701        6.94689355280072        0.40797595821960
H            0.79974497300153        7.76169063648133        7.29796129715797
H            9.87440590026716       -2.45860617564631        2.62609843270596
H            2.54760464857715        4.66802998396125        8.20694867192602
H           10.43942198426473       -0.33823083962330        9.71127225914991
H            4.45673373980634       -0.85987744270406        9.19436531206390
H           -1.96932750042251        4.30349338904018        6.23008073115593
H            8.77589067265940       -1.50672395861105        0.62495176347816
H            5.15898501810347       -3.66276481047392        6.03322257865135
H            4.01513488499400       -3.05910978233232        8.14402520019438
H           12.37700035115789        1.57050835787251        6.40106882971530
H            7.20487688995183        0.42033564744574        0.88243445670712
H            0.94629262298328        8.85518644884324        1.97643815326791
H            5.12473722217677       10.12183727973645        6.83284135025605
H            2.19103940684086        4.32211749262445        3.48142429997114
H           -1.48967987786127        3.25896850062202        8.42326195302203
H            1.10552167310619        9.98679876588382        8.31397404555632
H           12.47272422516725        0.64347142942311        8.69641581211582
H            3.26113935883485       11.17681550749700        8.07958751066832
H            1.41013062329377        4.66966555725429        1.17693661617279
H           -0.62357623322097       -0.15081856322800        7.91864099301391
H           -0.63886170525612        0.16082874267161        0.46985906364500
H            4.58432799765472        0.02436359376609        2.45853909721482
H            0.00377381340050       -0.00921919686432        5.54558736100715
H            8.27129553932681        5.58209324938477        0.59831162973956
H            9.24571696874249        5.24427074791937        8.78314848721138
H            2.66969285703806       -4.04077508004060        4.50888019969150
H           10.03092444708724        3.71384304635082        6.99937511544894
H            7.87464401391457        7.21904097626031        8.19165788584973
H            4.55628194488773       -4.23226251337016        2.91955795930959
H            3.81042777708438        1.61206819689097        6.67167731006188
H           12.55281467457041        7.05288709105250        2.58053200999901
H            9.42327348354529        4.14104454968519        4.65235549910767
H            0.94847307351073        0.59783830351714        9.67606426754594
H           10.54934059755525        6.86282777990737        3.99799579203027
H            1.36325019164066       -0.36687266827636        1.80472967059293
H            1.75638482001490       -1.83198998477672        5.09003394420192
H            3.17520934071870        1.51924246032886        9.02262635867313
H            5.51697778310563       -2.18833552022030        1.89484448907720
H           12.42818717995113        6.51348207666192        0.16886083178695
H           10.28106928828340        5.77784973477347       -0.82075424694426
