170
 energy: -254.714841050916 gnorm: 0.000449686596 xtb: 6.5.1 (579679a)
Au          -0.61720667779544        7.45846153404254       -0.42277790479101
Au          -1.98907790308092       10.05069905613833       -0.23857142124524
P           -0.29210035370019        6.09463885429373       -2.28427943788739
P           -3.06855116744015       11.31306323885798       -1.88111369727065
S           -0.83171909577019        8.86982439337488        1.46749811932122
C           -1.94229071412326        8.09931819607835        2.59813993427052
C           -3.17711044819371        8.66343231310173        2.88955139929134
H           -3.49161147961556        9.56575887045874        2.37779492584736
C           -4.00158479941667        8.07397029240565        3.83402672179416
H           -4.96286642083243        8.52462721891084        4.05471078960963
C           -3.60866407182713        6.91447215606802        4.50154468105354
C           -2.37406902546285        6.35063051763501        4.18961193494098
H           -2.05003587589322        5.44449168444358        4.68922272833777
C           -1.54567700275531        6.93437438083174        3.24350202056032
H           -0.58818506860632        6.48536532933842        3.00623700898526
C           -4.51141516261601        6.28676431778424        5.52322722229417
H           -4.00402959468675        5.48061550324027        6.05141403731005
H           -5.39886967551688        5.87804113892076        5.03667193865164
H           -4.84110210175628        7.03148508968277        6.24854364935570
C           -0.24283145429932        4.31436019370245       -1.93296948583361
C           -0.97351482206347        3.82583118717775       -0.84670543766337
H           -1.53860869809023        4.51524413748605       -0.22764535788228
C           -0.97681575496008        2.47120813870606       -0.55268758544764
H           -1.54862710478431        2.10518070704485        0.29196859150158
C           -0.24828321607691        1.58825545338543       -1.33932373429161
H           -0.24944499547290        0.52952638578099       -1.10903357444394
C            0.48270594012998        2.06412212488203       -2.41976535720651
H            1.05333308133109        1.37813910774704       -3.03475085655639
C            0.48730897051403        3.41743690452703       -2.71844652693899
H            1.06522970700250        3.78071510778667       -3.56049565906835
C           -1.54293023981288        6.29225412400073       -3.58457993752865
C           -1.41471490890674        5.67771658578170       -4.83476977047869
H           -0.54841147489659        5.06158990964477       -5.04781671725118
C           -2.39275594041629        5.84845281662410       -5.80132906836118
H           -2.28082346050821        5.37005412081518       -6.76721580923355
C           -3.51332156071452        6.62483704720173       -5.53487653960185
H           -4.27572994553644        6.75575801802927       -6.29358469901468
C           -3.65904989030427        7.22591109758024       -4.29262942442537
H           -4.53561845279405        7.82475797814475       -4.07268114744334
C           -2.68113597128243        7.05919625844421       -3.32436551478715
H           -2.80336159727121        7.52313838615276       -2.35077397570913
C            1.31485090463806        6.44583680434152       -3.05012587744113
C            2.46309171155032        6.07200085591544       -2.34269759761518
H            2.36007800736413        5.53418233310015       -1.40634477929911
C            3.72339574389437        6.36726562604673       -2.83486133641276
H            4.60231752142976        6.06300470755736       -2.27796901693124
C            3.85602908805640        7.04785857250248       -4.03927102525281
H            4.84117683537148        7.27430336701372       -4.42935544703323
C            2.72333569881295        7.43975488274887       -4.73950525115671
H            2.82200003014719        7.97838379667513       -5.67475406611869
C            1.45978724106294        7.14793779135383       -4.24686286036807
H            0.58244988071297        7.46079915260159       -4.80105399163312
C           -2.15130158089989       11.44635475142820       -3.44574462770829
C           -1.48343651355263       10.31398455728869       -3.92062108046074
H           -1.48603450723073        9.40360004126665       -3.33100441128025
C           -0.81302019839826       10.34600909218001       -5.13212164483181
H           -0.30212480991890        9.45861843785197       -5.48782233295344
C           -0.79168463659179       11.51229011699350       -5.88517868984049
H           -0.26303838224139       11.53846628224337       -6.83058938610869
C           -1.44732140023677       12.64436002970774       -5.42173540006572
H           -1.43419171933192       13.55754926566680       -6.00505544907610
C           -2.12656179235660       12.61420504248884       -4.21294412814617
H           -2.63729266556876       13.50387126488376       -3.86363164444417
C           -4.68880913446189       10.68108206443259       -2.39401479136165
C           -5.23947740322730        9.57557829678354       -1.74248109182206
H           -4.70580589650628        9.12214235765221       -0.91341359597310
C           -6.45988594891195        9.05601076698481       -2.14672294312501
H           -6.87597309247944        8.19775357172897       -1.63221046520260
C           -7.14385318856385        9.63521775601779       -3.20666930791432
H           -8.09689655719118        9.22864396082524       -3.52354050136515
C           -6.60532970177245       10.73550721306550       -3.86188464571874
H           -7.13724475142338       11.18912715328449       -4.68990742211038
C           -5.38518712754226       11.25566219249598       -3.46326639555192
H           -4.96529622180709       12.10955313886124       -3.98338515078286
C           -3.33017756703180       13.02456135892048       -1.34136315380099
C           -4.58714088089373       13.50553689657315       -0.96997042314708
H           -5.45950994193655       12.87021723087102       -1.07152960657187
C           -4.72675813793474       14.79502737942833       -0.47789095058014
H           -5.70874056281563       15.15785449859907       -0.19785808348882
C           -3.61699494255408       15.61781250294023       -0.34711991368809
H           -3.72886255825507       16.62586786046376        0.03408217885829
C           -2.35983151927223       15.14640028077073       -0.70431141408392
H           -1.48903485297983       15.78417107629995       -0.60440291351912
C           -2.21418069834944       13.85621690927948       -1.18800652442952
H           -1.22873919145466       13.48833782637209       -1.45684486809798
Au           0.61901828290652       11.38697428991123        0.42337316402482
Au           1.98699656777388        8.79461466128149        0.24044906780604
P            3.06858912113546        7.53256726914185        1.88098905659192
C            2.15128840069463        7.39928149452262        3.44560712610719
C            1.48349517972188        8.53167236081402        3.92055811542818
H            1.48612757015691        9.44206670599917        3.33095888138228
C            0.81311617575729        8.49964711882434        5.13209049576004
H            0.30226218894417        9.38704383521784        5.48783702859526
C            0.79173954752631        7.33334703958812        5.88511915298872
H            0.26310528709805        7.30716056268417        6.83054072900447
C            1.44732275357594        6.20126670917629        5.42163175217055
H            1.43415304352547        5.28806538278948        6.00493822954564
C            2.12653094662293        6.23142093735888        4.21281471345917
H            2.63723130890426        5.34174079174418        3.86349376189697
C            4.68882407049565        8.16455947038681        2.39398086674929
C            5.23949618075125        9.27011170472730        1.74252747140276
H            4.70584226012551        9.72360188335700        0.91348503440361
C            6.45988595692175        9.78967719391141        2.14680849401690
H            6.87596093650807       10.64797123796200        1.63234905624965
C            7.14384798455425        9.21042077948148        3.20672830144686
H            8.09688117027672        9.61699183113463        3.52363190288063
C            6.60533392665403        8.11008493861616        3.86187370499372
H            7.13726523158576        7.65642813578655        4.68986660956720
C            5.38519574124260        7.58993961527573        3.46322192919143
H            4.96531975769808        6.73600729254006        3.98328616580093
C            3.33020822983677        5.82102634508414        1.34138090257018
C            4.58717326268139        5.34004722370982        0.97003036167403
H            5.45954363211569        5.97536243610638        1.07160848216619
C            4.72679090805193        4.05055888229733        0.47795678683516
H            5.70878340528381        3.68771520495336        0.19798847504203
C            3.61702189017830        3.22778722200814        0.34714064074860
H            3.72889548655281        2.21972506220879       -0.03403658028137
C            2.35984917412645        3.69921825049263        0.70427029704952
H            1.48904541307424        3.06146233949370        0.60433039697865
C            2.21420030968736        4.98939822574807        1.18796789904633
H            1.22874446743575        5.35729486622695        1.45673592912925
S            0.83191834125785        9.97566034287055       -1.46759659777355
P            0.29191596474092       12.75113045753234        2.28414842833575
C            0.24272745058658       14.53141785902992        1.93289319895121
C            0.97339601926146       15.01996332868239        0.84662650498540
H            1.53846242159819       14.33055785923153        0.22753121204447
C            0.97671405628505       16.37459835270554        0.55265714231749
H            1.54851541253097       16.74064538111420       -0.29199788012591
C            0.24821817138198       17.25753812130922        1.33934255381062
H            0.24940260850320       18.31627594183772        1.10909454355539
C           -0.48275619286715       16.78164871981421        2.41978370747931
H           -1.05336372810143       17.46761123792139        3.03480904499426
C           -0.48736680296798       15.42832675567614        2.71842342817821
H           -1.06528302832233       15.06502143495473        3.56046331837409
C            1.54282773150288       12.55347149707515        3.58437486767213
C            1.41467525258914       13.16802237659384        4.83457115734698
H            0.54838579964534       13.78415333279428        5.04765887285636
C            2.39274495872733       12.99728775959496        5.80110556906774
H            2.28083969895526       13.47569162873571        6.76699610454448
C            3.51329564095632       12.22089700969626        5.53462080251754
H            4.27572708216656       12.08997334615302        6.29331073852734
C            3.65897041699409       11.61981717057413        4.29236387069189
H            4.53553730084004       11.02096921011687        4.07240654107094
C            2.68101584599122       11.78651877532602        3.32411480769534
H            2.80318096558789       11.32257817310116        2.35050714203929
C           -1.31495906839658       12.40000794280313        3.05015535804288
C           -2.46321065239771       12.77385222771921        2.34276680055597
H           -2.36021694605028       13.31164344052646        1.40639423486393
C           -3.72349109710182       12.47858761402710        2.83497553386072
H           -4.60243106177670       12.78287375756187        2.27812682016781
C           -3.85607519183898       11.79796001539490        4.03937222541507
H           -4.84120861976297       11.57154499773642        4.42950526336990
C           -2.72335687702005       11.40599378381739        4.73952917589263
H           -2.82198154726694       10.86732741622899        5.67475916290926
C           -1.45983134866232       11.69782037278888        4.24684432866728
H           -0.58246261840126       11.38487477508221        4.80094050362193
C            1.94238223053474       10.74635616294821       -2.59821606515529
C            3.17724391058317       10.18232125297611       -2.88958685348005
H            3.49178886790391        9.27998079303084       -2.37789201012775
C            4.00173697539719       10.77184003263706       -3.83397522669129
H            4.96304455827406       10.32121026374155       -4.05459670718391
C            3.60878923490159       11.93133081948150       -4.50147367428797
C            2.37416301807400       12.49512243247741       -4.18956772181511
H            2.05011393420317       13.40126697662049       -4.68915200298120
C            1.54574531981084       11.91131583490579       -3.24351590640668
H            0.58823833203077       12.36029390276866       -3.00625217609252
C            4.51155945991865       12.55904397599110       -5.52312053175007
H            4.00421424866912       13.36528131016427       -6.05120675767582
H            5.39907447883347       12.96762911561768       -5.03656028215693
H            4.84113715055429       11.81434646904143       -6.24851200819532
