142
 energy: -218.107730277302 gnorm: 0.000329563595 xtb: 6.5.1 (579679a)
Au          25.88902867823485        8.87949240178123        8.06164894578087
Au          28.41860633901358        7.15212075726981        7.73573191067116
I           27.31741782666875       10.82228410781073        9.16482108040284
I           27.31779530840543        5.20965430866952        9.16421180117597
P           24.44718283197608        7.61384940316436        6.70696358118178
P           29.77365491282675        8.41827973342395        6.29357072104072
C           23.91285824122068        8.56959610481342        5.26299001801825
C           23.61591137259468        7.95796979693486        4.04053071150241
H           23.70361554607182        6.88231077866727        3.93959506049933
C           23.21414434951497        8.72246779298132        2.95666567061398
H           22.98741707380433        8.23768190300434        2.01439603501801
C           23.10142114368334       10.10112528972657        3.07611572173663
H           22.78799368231370       10.69558046060481        2.22622967345761
C           23.39190324072000       10.71838418937331        4.28597949480318
H           23.30378119780865       11.79390811763429        4.38498445931609
C           23.79680793841169        9.95825571790733        5.37196658833683
H           24.02679736770171       10.44240460637921        6.31552465568236
C           22.93016777276198        7.00673111647724        7.49854676734820
C           21.66428942982592        7.22064293395768        6.94838854245053
H           21.56605795857691        7.74477138788035        6.00500617184764
C           20.53014733629540        6.76332699284392        7.60255707121666
H           19.55451606134959        6.93540836895655        7.16347501102363
C           20.64087670442581        6.08973569685399        8.81062960746591
H           19.75256879985540        5.73399990279585        9.31883052736739
C           21.89384097245598        5.87415786479994        9.36971612593731
H           21.98955529985104        5.35103158913252       10.31440333613704
C           23.02841767871617        6.33446481693114        8.72216808610980
H           24.00520483520711        6.16955298120239        9.16628254809361
C           25.26979627355907        6.15661642963867        6.00190943006677
C           26.39339008489898        6.38162348113367        5.19687305443750
H           26.68401328191939        7.39936858647336        4.95944272950504
C           27.11549940942141        5.31841579972701        4.67981364279398
H           27.97803793719477        5.51001902453249        4.05169282765108
C           26.72919365113068        4.01407695397608        4.96406376460087
H           27.29386541877545        3.18149682571019        4.56181779713888
C           25.61714002831541        3.78120608869909        5.75997515760202
H           25.30972136201538        2.76569162583891        5.98040488272650
C           24.89079907661653        4.84372219440043        6.28024718089102
H           24.02474317794789        4.64865294879800        6.90184098603879
C           28.98094197395970        9.02437501299062        4.77671283221785
C           27.75926439093214        9.70010125344255        4.87574488862432
H           27.31748477742037        9.86847390377888        5.85298730969682
C           27.11068483871582       10.15933963217909        3.74131999767535
H           26.16757188427752       10.68518635686850        3.83761554132297
C           27.66663871236815        9.93914874819326        2.48776003386167
H           27.15754182715716       10.29395727415438        1.59959110422055
C           28.87270121070786        9.26210440352759        2.37628270577950
H           29.30932758101390        9.08639339185772        1.40019422134123
C           29.52796545849367        8.80589908257522        3.51025271848882
H           30.46979112410137        8.27910262721696        3.41138698792967
C           31.21656684516300        7.46142126832021        5.75844601347210
C           32.43856896786110        8.07249892213623        5.45854820670653
H           32.53973977784044        9.14826361079120        5.54467503918909
C           33.52162127401085        7.30732997709165        5.05590104749413
H           34.46353691471227        7.79169700739420        4.82683823776115
C           33.40178420602854        5.92853489075935        4.94522895746818
H           34.25100273358370        5.33356230102717        4.63098302335082
C           32.19240045324864        5.31180277537381        5.23879167428677
H           32.09310931154447        4.23616995256695        5.15232249897881
C           31.10722960324472        6.07261713927500        5.64458757524911
H           30.16403174243173        5.58889546181686        5.87694689536316
C           30.48026337288062        9.87578537272516        7.11435975784448
C           31.28498763174804        9.65126040629453        8.23826703484825
H           31.52092253967017        8.63360629567880        8.53046283788844
C           31.80367512778243       10.71478074606753        8.95872839340615
H           32.43156011693420       10.52355679282712        9.82152144437473
C           31.52141925144682       12.01895822548721        8.57042371136461
H           31.92506286809004       12.85178578211323        9.13372889064316
C           30.72575538330076       12.25134662944879        7.45809331017928
H           30.50690305301774       13.26671831894643        7.14908406327871
C           30.20384592842389       11.18851827453009        6.73340447293484
H           29.58254910652184       11.38321630341856        5.86705465453076
Au          28.74737512027532        8.88146584324567       10.26754335355460
Au          26.21530508299682        7.15305506429562       10.59203931884582
P           30.18772208298878        7.61372088379821       11.62181765996939
C           30.72199679077707        8.56948745118818       13.06578995495359
C           31.01865781098723        7.95795392130646       14.28836565724455
H           30.93085339465599        6.88231227277785       14.38938541371992
C           31.42018360900686        8.72253026414811       15.37226539816444
H           31.64667347522982        8.23781503612771       16.31462908801006
C           31.53300986934538       10.10117003316652       15.25271231030284
H           31.84627394392626       10.69568279823704       16.10261986883772
C           31.24283932222948       10.71833345494733       14.04272116222245
H           31.33105714330244       11.79384413934359       13.94364744483772
C           30.83812065605575        9.95812997141668       12.95671067478577
H           30.60830649998018       10.44217851414139       12.01305303334257
C           31.70479238275561        7.00667735665740       10.83025913759078
C           32.97064509550408        7.22042003158630       11.38057355719116
H           33.06883197289008        7.74442926299342       12.32402718259348
C           34.10481861080613        6.76303505053960       10.72649268249395
H           35.08042681430268        6.93500641304175       11.16567545351480
C           33.99415827656154        6.08955331262272        9.51835306950136
H           34.88249096993036        5.73380073431937        9.01020219498333
C           32.74123230262561        5.87412515067753        8.95912450191935
H           32.64557585359475        5.35110191720778        8.01437441683426
C           31.60662407686372        6.33447752301835        9.60659175598524
H           30.62987104719718        6.16964389465372        9.16238196736529
C           29.36516969566867        6.15649671687786       12.32692046849176
C           28.24162931580752        6.38156485751645       13.13201125373764
H           27.95105340244482        7.39932822748409       13.36942192221112
C           27.51939407822879        5.31839284518829       13.64896582157681
H           26.65684676801741        5.51004258049809       14.27705714678861
C           27.90560378094485        4.01403912215038       13.36465046302887
H           27.34088335119564        3.18148654472165       13.76688051670093
C           29.01764626334327        3.78111537986415       12.56873869500637
H           29.32499681063309        2.76558793748884       12.34827739158830
C           29.74406707030225        4.84359759901305       12.04850436850662
H           30.61010904667149        4.64850333905366       11.42689796911688
P           24.86131025840024        8.41827493328580       12.03529821377120
C           25.65395658163861        9.02448522260233       13.55214001088444
C           26.87564713063762        9.70017845500346       13.45309758084579
H           27.31742971850408        9.86853458468079       12.47585183148608
C           27.52424483216273       10.15940929151118       14.58751000381173
H           28.46736004534644       10.68524990002119       14.49120224765441
C           26.96829212554760        9.93923899229085       15.84107204494583
H           27.47739523968176       10.29405602078573       16.72923253220693
C           25.76221895409711        9.26221494566643       15.95256167243712
H           25.32559643294132        9.08651414579798       16.92865256502923
C           25.10692872604620        8.80603525994352       14.81859798646814
H           24.16510695403984        8.27923284750773       14.91746722362136
C           23.41838131712434        7.46142778557824       12.57041490441723
C           22.19632750403235        8.07243021820227       12.87027194225330
H           22.09508521746054        9.14818893090704       12.78414687027421
C           21.11331506549615        7.30718756454561       13.27289949106690
H           20.17136473297634        7.79148956711191       13.50195564099845
C           21.23323024640326        5.92839836723664       13.38356937533422
H           20.38404805943579        5.33336837232028       13.69779946211461
C           22.44264889476933        5.31173957683377       13.09002147425826
H           22.54201203835145        4.23611206429322       13.17646671811933
C           23.52777252026335        6.07262632485875       12.68427521018623
H           24.47099327136439        5.58894585980722       12.45194740652281
C           24.15482612022235        9.87575020219186       11.21431868708208
C           23.34996940270730        9.65122050144533       10.09049549946633
H           23.11402222324879        8.63356927776113        9.79831506178720
C           22.83125092535474       10.71473292694234        9.37002890940502
H           22.20344751098758       10.52349277108121        8.50718043214190
C           23.11347136312308       12.01891921702991        9.75832288544379
H           22.70983670937357       12.85173669864310        9.19499093612315
C           23.90909387842976       12.25132739157343       10.87067776323563
H           24.12790373812949       13.26671179722765       11.17968501654221
C           24.43110283319067       11.18851158352142       11.59532807191198
H           25.05229304978143       11.38325073457044       12.46174559311349
