628
 energy: -1023.709530706280 gnorm: 0.000756362838 xtb: 6.5.1 (579679a)
Au           6.86794139985648        3.50382012547520        6.08289006923621
Au           4.26027998137862        2.67176831543426        7.32401144193272
Au           7.85285847220953        0.96852945141239        7.21170748101842
Au           9.56485737782293        2.62548045954101        5.79308049376685
Au           8.67708084589921        5.75522227751530        4.92123513600315
Au           5.83188745634264        6.25017393030207        5.37674759811633
Au           3.27215427792315        5.16510374536524        5.99844302215740
Au           5.77283374775912        4.47362766709105        8.90202635045507
Au           7.77048040287978        6.23989713289726        7.70879792002279
Au           6.80827120074616        9.07153699682307        6.76647987918327
Au           5.02042826327928        7.01682905967384        8.19179845094417
Au           2.64040418432342        5.96382788577832        9.72722658160357
Au           4.97224419475135        4.61206703065098       11.92711123256689
Au           6.80141310049004        6.68043613815542       10.45286832172550
Au           9.56706719514638        8.34599307138152        9.46818014475586
Au          12.05595762935842        7.01913684586459        8.93263527087263
Au          12.33690085910855        6.91961877959346        5.06348902792137
Au          11.05957801645088        4.89390456287211        3.19374281696283
Au           4.56336394302496       -0.44034064821847        7.55431599321712
Au           4.01375720134696       -0.10242832563409       10.86670904173955
Au           5.80521155289345        2.02342992649634       12.52384342530623
Au           4.92217245805340        3.96412443365618        4.14826687653194
Au           4.46599278322937        1.16200722746385        4.71946432564686
Au           7.17400227798906        2.79074892290029        2.92663258474284
Au           1.85317205892826        7.95760479504466        6.03529522610931
Au           1.88026028872349        6.02249881058814        3.52918597345691
S           13.67243736825788        6.84727320679380        7.04813503206001
S           11.48629404512186        7.20952082929023        2.84168660966154
S           11.05077655978075        2.60437049461366        3.80683998584308
S            6.44829309671081        0.61996349442524        3.50325056487951
S            6.71322503913582       -1.25314344275419        7.02821429379133
S            2.68735544670611        0.26473974200030        8.92298313544220
S            5.33556870810283       -0.39590922316381       12.79315092888466
S            2.50651286224074        2.23882124976092        5.48367886109933
S            1.51379051694507        5.64485728686877        7.69308324091721
S            3.55142435232042        6.71905491197496       11.76622022596721
S            3.62013639826014        8.88642891299027        7.33606478866415
S            7.49394352988399        9.72533991094976        8.95399538223431
S            6.47723110387539        8.50836162485389        4.49668224908476
S            8.18973671825118        4.88560602374672        2.63453316779128
S            3.58456350404974        4.97436283857289        2.27689518906286
S            0.12439381263477        7.06555334426882        4.69020132727376
C           14.40602821916881        8.49116360296503        6.97375004880088
H           13.61664160252687        9.24500982520408        6.92813841701610
H           14.96535177571887        8.64451152742409        7.89650698026736
C           15.32260976041235        8.63598697025431        5.75842914657412
H           14.90007189205320        8.07527486363550        4.92134058728880
H           16.30292495838479        8.20991209370313        5.98894172881634
C           15.44946863954063       10.08660345858052        5.37423682474219
C           16.18773353266483       10.96611624354356        6.16211492398582
H           16.69919866086742       10.59711817129996        7.04416093460020
C           16.28020136059888       12.30769224228184        5.81938954504047
H           16.86949739804377       12.98086497207759        6.43199285266028
C           15.62678787314338       12.78622108156252        4.69049907719101
H           15.70180071750636       13.83360501105129        4.42192665614407
C           14.88286578685553       11.91659377343209        3.90510839086193
H           14.37213625370428       12.28256958533234        3.02134449909911
C           14.79448396263821       10.57402851540110        4.24633277740730
H           14.22067961426062        9.89670436641187        3.62238602308599
C           12.99702991563501        7.30232806643131        1.85867958058857
H           12.70767937624723        7.16960093950019        0.81539854352085
H           13.39151889900704        8.31215472754698        1.98075297657332
C           14.06441902979530        6.27985519066406        2.23707791132752
C           15.69996383464273        5.66767968319299        0.42078531485926
C           16.87728068538235        5.88802785199085       -0.28080972432460
C           17.69594366148320        6.95890040626037        0.04946771061785
C           17.33339161909774        7.81135898693263        1.08379187026280
C           16.15859876228387        7.59023448261736        1.78650144051052
C           15.33465347258366        6.51408695817901        1.46253364309529
C           10.37098589636113        1.62648851427395        2.45363986485666
H            9.50454907678296        2.12013305100650        2.00973133116647
H           11.15380837515155        1.55456799157474        1.69744609697189
C            9.99756960603984        0.25026262896104        2.97817282339751
H           10.86913291510211       -0.18274127602386        3.48049522377770
H            9.22008221101932        0.36185822843354        3.74250635893059
C            9.50775562114064       -0.71902190096847        1.92882917335078
C            9.12611370070327       -1.99685847791020        2.34003807304951
H            9.18425229209322       -2.25833205892852        3.39127789471136
C            8.68761555813216       -2.93857306465585        1.42272655719720
H            8.39847218846785       -3.92735446728647        1.76107759161083
C            8.62842752743445       -2.61828358803659        0.07194797814124
H            8.30579597017682       -3.35901937812759       -0.65052821994577
C            8.99567214558647       -1.34700827359414       -0.34553041477322
H            8.94944694506519       -1.08607920495437       -1.39698209163524
C            9.42761036265404       -0.40204387187353        0.57639182326778
H            9.71119508320569        0.58156692494051        0.22118659192677
C            5.84960336377931       -0.26355295527166        2.04611710316941
C            5.70465954243480        0.61293501280031        0.80794801194091
C            4.95719466394114       -0.10629956887487       -0.28973409834803
C            3.81768957539820        0.45870352574760       -0.85478783863327
H            3.46407552358035        1.42208295725090       -0.50631756824125
C            3.12252451701212       -0.20150520657113       -1.85755564788562
H            2.23528659465319        0.25286760982947       -2.28415740733294
C            3.55595644065473       -1.44132321195027       -2.30402464921516
H            3.01155056929537       -1.96062572076441       -3.08437215617734
C            4.69061255751426       -2.01334603285685       -1.74525376116386
H            5.03680542853656       -2.98184419729754       -2.08881068315876
C            5.38696621838335       -1.35013086721971       -0.74611201227938
H            6.27370005931824       -1.80508318466185       -0.32005451602274
C            6.87428210342340       -2.02799367144658        5.40766048113379
H            7.24391721070442       -1.29411672025673        4.69033287434363
H            7.63761145275962       -2.79841095698752        5.52784810653953
C            5.58196501734336       -2.62412487712718        4.86977433779958
C            4.89274757404325       -3.61725521409153        5.77348667045144
C            3.50462541972424       -3.72817605216208        5.71504109015182
C            2.83563286179279       -4.66765917961821        6.48725905715953
C            3.54668927866348       -5.50154274159000        7.33901477875654
C            4.92856641722471       -5.39090469005298        7.41034862624976
C            5.59834661984618       -4.45860035454708        6.63004006571978
C            1.35626014849065       -0.95944045825537        9.00596937336240
H            0.84901102679554       -0.82566546676994        9.96139965149618
H            0.65476259239258       -0.71999234818036        8.20659451964008
C            1.83123813964125       -2.39799505710349        8.84398786521078
C            4.01041594711320       -3.22833625049744        9.79859817308618
C            4.77136832252247       -3.72300005447392       10.84738726704339
C            4.21400655355511       -3.86223174733900       12.10926221887079
C            2.89082988549724       -3.49716858933178       12.31858404548056
C            2.12658422032051       -3.01236265278010       11.26740565091678
C            2.67588945096651       -2.88043116451285        9.99263406953652
C            4.12138206275929       -0.56490244478633       14.13108327933731
H            3.97739710381892        0.39423144642167       14.62506727946492
H            3.16723249981451       -0.88148718577538       13.71171607886076
C            4.60323716598089       -1.61820034068018       15.12260141982227
H            4.71368140804780       -2.57088863320665       14.59800035506694
H            3.81968617182854       -1.74471001772553       15.87984691005995
C            6.07203702720739       -0.05269812422562       16.46228944946051
H            5.28464795914641        0.69423651262329       16.44489254789356
C            7.24579672508847        0.21786875402474       17.14848641200663
H            7.35989206468899        1.16628584554830       17.66044280413615
C            8.26216765254333       -0.72548552282569       17.20124929167083
H            9.17077801900282       -0.51795395112653       17.75549131558900
C            8.10282383808415       -1.94023343706349       16.54847255492435
H            8.88458197302226       -2.69030816934551       16.59351352970469
C            6.92963735204154       -2.20867494083384       15.85686315291779
H            6.80615565286462       -3.16606788488816       15.36183921481913
C            5.90004912859779       -1.27285271400262       15.81346938089289
C            1.34901734898804        0.97575863704684        6.04957984784332
H            1.89391433931792        0.07125568537659        6.31075491444332
H            0.86785367022486        1.35716723719072        6.94914426593561
C            0.29288583032321        0.65259748201897        4.99678699881186
H            0.77857992389976        0.26001716078783        4.09974857262920
H           -0.25070358837927        1.56068184052774        4.72545566613830
C           -0.63377907350652       -0.37688549200376        5.59126931428855
C           -1.88203899221425       -0.01455937282313        6.08746418717386
H           -2.22527197321327        1.00968343441465        5.98925912124573
C           -2.69205576585282       -0.95882061515341        6.70446140572097
H           -3.66718867500924       -0.66878153578194        7.07935881394791
C           -2.25625983555592       -2.26963490876986        6.84136385648379
H           -2.88655008356539       -3.00410465579240        7.32948796495234
C           -1.01163167361520       -2.63779053030418        6.34790522555396
H           -0.66776686598927       -3.66161845901383        6.44694771807876
C           -0.20479824571344       -1.69656307279559        5.72578228853309
H            0.76515368526331       -1.98889854591489        5.33682147458612
C            0.45508515408583        4.20085455239102        7.97275637179821
H           -0.11314553583153        4.03208625921309        7.05796826159407
H            1.08810543197146        3.33423050831220        8.16298616313377
C           -0.46079140484892        4.47133954542244        9.15553293966670
C           -1.28983290468856        3.30221508062963        9.63406387590161
C           -1.23648821984689        2.03434879191419        9.06587523053782
H           -0.60323044128226        1.83950612943569        8.20943103115764
C           -2.00558040425311        0.99651436917833        9.57861435966921
H           -1.95319265537668        0.01605408977765        9.11784961568097
C           -2.83989591493581        1.21266341063325       10.66495296830605
H           -3.44818205589675        0.40560870612924       11.05657891926888
C           -2.89821089422563        2.47587063248677       11.24149499269163
H           -3.54838981513291        2.65694848448966       12.09005797259185
C           -2.13090913458654        3.50964254414092       10.72869393473199
H           -2.18633194348305        4.49463440949866       11.17980800501136
C            2.25253770284829        6.64819432224301       13.01659470588177
H            2.45024894377516        5.81232328523904       13.68644296358123
H            2.34396528924310        7.56745696848120       13.59704669159181
C            0.84584471663706        6.51660830624011       12.45196785378165
C           -0.12235444358256        6.27414172899502       13.58188156476887
C           -0.41455121222619        7.28249013175124       14.49657518575659
H            0.02870285893065        8.26562129718785       14.37696059041918
C           -1.27148853585937        7.03570437244162       15.55933789161301
H           -1.49079525176919        7.82586954585639       16.26887475077943
C           -1.84848253829030        5.78265676856528       15.71565873321319
H           -2.51734176243624        5.59184934763736       16.54721711590714
C           -1.56214106419177        4.77401700471718       14.80637362933495
H           -2.00804021975784        3.79240591840324       14.92310357872732
C           -0.69651378776563        5.01757088574366       13.74999908952120
H           -0.46363525447545        4.22705085966108       13.04515423951107
C            2.95504457161599        9.62272496533991        8.85003554898916
H            2.60070969824714       10.62346851427811        8.60023545648824
H            2.11286384651386        9.03368312578733        9.21309389529963
C            4.06458818801924        9.69215563250147        9.89053399803018
H            4.93039814446055       10.19628666375355        9.45603270496036
H            4.37936679652973        8.66725239013055       10.11729152463168
C            3.69862312032531       10.34972833400676       11.19440330696336
C            2.51189834378069       10.04522784957149       11.85667385605595
H            1.79954717235936        9.36313401646383       11.40644611511033
C            2.23275465030722       10.60468386801862       13.09469008944968
H            1.30546049832666       10.35694295476795       13.59985392439824
C            3.13554257378566       11.47765672064125       13.68719614018943
H            2.91106091155747       11.92341915645942       14.64947407786041
C            4.32120029880399       11.78554678034920       13.03352419087587
H            5.03179486171471       12.46827594407106       13.48673833795765
C            4.60121348119635       11.22242758080687       11.79756648368110
H            5.53152313392109       11.46647305089047       11.29635755719902
C            7.91098837624970       11.45355081977897        8.64571870733721
H            8.34602808264285       11.86777316931927        9.55513919024431
H            8.64676419790982       11.51081547521249        7.84391645322286
C            6.65725897471380       12.23406240157954        8.25855913023960
H            6.12688613846738       11.69112295679678        7.47149518506507
H            5.99331865431381       12.31429382757126        9.12296366383823
C            7.05755960978240       13.59651805332632        7.76065951489335
C            7.20006224599732       14.66176938969290        8.64647197934316
H            6.97612740000126       14.52134473764974        9.69866621671579
C            7.62545097243274       15.90083780580198        8.18725859238809
H            7.73305014762558       16.72547885444188        8.88319439038554
C            7.91611289314113       16.08328754343849        6.84193599696437
H            8.25021320797860       17.05065332204366        6.48459512901754
C            7.77794797979656       15.02355268567939        5.95532933243008
H            8.00099563040863       15.16285306746706        4.90325157068003
C            7.35371963174272       13.78464813679328        6.41291453790473
H            7.25003218425693       12.95671301216773        5.71916112878178
C            4.93686515770418        9.30946470619481        4.01209249844829
C            4.83816868823466       10.73585884154842        4.54439305043713
C            3.55382832789642       11.37647386607883        4.08723141068566
C            2.49074401650629       11.53233889300788        4.97255825216942
C            1.29244754064287       12.08677504467749        4.54485432123148
C            1.14418492370496       12.49044737980120        3.22464452294050
C            2.20139034524539       12.34198147135402        2.33654507252855
C            3.39890366818740       11.78721088601346        2.76471557039408
C            7.06634461727578        6.04081829759319        1.80650393792946
H            6.03301658839709        5.71544162986748        1.93041029199634
H            7.18221171668561        7.01119355951798        2.28911075700332
C            7.41301934811249        6.14567657587927        0.32397890550394
C            7.12701393244990        4.85503051729178       -0.39769664662295
C            5.83134916387273        4.56168046934068       -0.81511844335596
H            5.02984742996678        5.26448117872519       -0.61333833184138
C            5.56347236920589        3.38550198037856       -1.49880190187046
H            4.55545295468808        3.17793639198347       -1.83978465871069
C            6.58551430448729        2.48156405403556       -1.75797806875480
H            6.37772336289388        1.56768627260359       -2.30245264879726
C            7.87324473281008        2.75311636516343       -1.31621916117212
H            8.67387355785718        2.04810074782575       -1.51040069554675
C            8.14294544714623        3.93412050726364       -0.63869116918739
H            9.15274734602641        4.14821611356590       -0.30568501858813
C            2.79623207792427        3.63113920995879        1.37162225474504
H            2.46005627716775        4.03753654131294        0.41609866973335
H            3.56700650893517        2.88592354259970        1.17564188206385
C            1.62038070465191        2.98784529648208        2.10687899003821
H            1.87977332097996        2.86914287498288        3.16260676008901
H            0.75297909977299        3.65113897534694        2.04747305091370
C            1.29761564252561        1.63764417446730        1.52146024375460
C            2.01603646633583        0.51491322802301        1.92930525109689
C            1.73757922912009       -0.73734459642109        1.40336850795783
C            0.73888170426148       -0.87963992950234        0.44988373741590
C            0.02683758813086        0.23462894611860        0.02723243345240
C            0.30336942657303        1.48649400418934        0.55966747027015
C           -0.54302727942848        8.33891332791742        3.59881933258692
H           -1.28947981784068        7.84495293171774        2.97585054489831
H           -1.05936443441525        9.05376257717468        4.24064037823605
C            0.46808680763836        9.09137412274218        2.74213345169355
H           -0.05618631351707        9.93020530025191        2.26734857439834
H            1.23332747580670        9.51936952477251        3.39646418271563
C            1.13940512746765        8.28451500015273        1.65792041447120
C            0.45507468854603        7.33115334730730        0.90172148259251
C            1.09973426826800        6.64651959365853       -0.11905324266379
C            2.43225192951098        6.90721397805454       -0.40719297900712
C            3.11897271492520        7.86140763009409        0.32981859220194
C            2.47531075419422        8.54411486135830        1.35053354347019
Au           8.60441891217478        6.50659848892885       12.80004336097394
Au          11.21250573256166        7.33963434050449       11.55934475593084
Au           7.61999507952494        9.04176683908628       11.67159715226803
Au           5.90896130539445        7.38515400953868       13.09280291986543
Au           6.79560760709541        4.25274554669214       13.96385991361244
Au           9.64067381976409        3.76048277565730       13.50839432030219
Au          12.20031147156309        4.84808965593369       12.88765137897665
Au           9.69948433165439        5.53651593641495        9.98138405073134
Au           7.70214748366480        3.76962933231666       11.17490340144007
Au           8.66333564319613        0.93984665644848       12.11619820736271
Au          10.45238727181275        2.99280926065488       10.69258786907588
Au          12.83186393409808        4.04790111580229        9.15773692727843
Au          10.49932958219619        5.39774268918299        6.95727019435195
Au           8.67152334285323        3.32985206562678        8.43292057250052
Au           5.90474975032872        1.66368516723641        9.41466472772188
Au           3.41728714256352        2.99224459608981        9.95100400970002
Au           3.13538595614217        3.09152193732123       13.82072787629393
Au           4.41160110080539        5.11464151937427       15.69170833794514
Au          10.90854002536771       10.45283587879146       11.32872977640143
Au          11.45868654061919       10.11315684915460        8.01667576531497
Au           9.66676347238970        7.98707276514328        6.35918754995068
Au          10.55005135894178        6.04776791395081       14.73763448406722
Au          11.00185403238727        8.84954327033793       14.16406065778478
Au           8.29562379082566        7.21838180361723       15.95450659510088
Au          13.62117745280069        2.05509582727288       12.85013868084972
Au          13.59259071701917        3.99171744623033       15.35694560223464
S            1.80059663189595        3.16367294842830       11.83536139243500
S            3.98502620654558        2.79877479367439       16.04207467351718
S            4.42174978845243        7.40426458648933       15.07808113615052
S            9.01809135683488        9.39085288903062       15.37909632124314
S            8.75794563436611       11.26393962500865       11.85462456395889
S           12.78476945843886        9.74647270845193        9.96098554283440
S           10.13674935205180       10.40553005193512        6.08963061621301
S           12.96303225631133        7.77362744972978       13.40143562579476
S           13.95785648207434        4.36810936313906       11.19196141794660
S           11.92139577041442        3.29155603272044        7.11928050631647
S           11.85419878695085        1.12547837465818       11.54938967552017
S            7.97801320448943        0.28461343623805        9.92981906224787
S            8.99465303095269        1.50238603859775       14.38550396289282
S            7.28068534010878        5.12293656935053       16.25003703316010
S           11.88750483759725        5.03899376422068       16.60894415503752
S           15.34875433735970        2.94973091378713       14.19533105932627
C            1.06593668853117        1.52024830930457       11.90883855065605
H            1.85504484985312        0.76610809107079       11.95418792162284
H            0.50669181902338        1.36758541482706       10.98592378535816
C            0.14918291712898        1.37518727040773       13.12400076221351
H            0.57170134503196        1.93553951682905       13.96133754076041
H           -0.83105372855889        1.80146315278359       12.89354495294025
C            0.02222961550587       -0.07555735659292       13.50763229813493
C           -0.71626500527345       -0.95465749793969       12.71951732369522
H           -1.22787596027745       -0.58522537891726       11.83773576926503
C           -0.80876815547798       -2.29637247016935       13.06168291711367
H           -1.39825695176334       -2.96922690774439       12.44891704563759
C           -0.15516620296029       -2.77544032167207       14.19023815263790
H           -0.23023159778270       -3.82292906865660       14.45838405984751
C            0.58903422951695       -1.90622874106456       14.97582562238889
H            1.09993109100292       -2.27263233651283       15.85931589519311
C            0.67746163755244       -0.56352747402198       14.63515614131278
H            1.25149681107105        0.11347694308209       15.25923882993169
C            2.47394046289911        2.70637553793430       17.02461114699774
H            2.76305209492867        2.83838265064644       18.06805709999696
H            2.07903004581558        1.69678594464719       16.90194414934913
C            1.40697076438816        3.72944172294845       16.64660438368401
C           -0.22889284088407        4.34093104502637       18.46290817731816
C           -1.40646032757259        4.12048330034021       19.16406194384600
C           -2.22537714730176        3.05008939672938       18.83287059841317
C           -1.86282522997115        2.19820622207846       17.79807472303348
C           -0.68777816715552        2.41942894441866       17.09580928704283
C            0.13643463436644        3.49511045804914       17.42068206519242
C            5.09809362927631        8.38350117222042       16.43210998781831
H            5.96491220822839        7.89182972667286       16.87751923497122
H            4.31399573885796        8.45394819337777       17.18710019474928
C            5.46946679337338        9.76036810127521       15.90779049735072
H            4.59744899799382       10.19163238700776       15.40472538403305
H            6.24769677167159        9.65009729232184       15.14404491006855
C            5.95654017894452       10.73097409672012       16.95719268797218
C            6.34267467649188       12.00708812453935       16.54478980569692
H            6.29029929806069       12.26607089888699       15.49263284561174
C            6.77824922399060       12.95027181544076       17.46198297919711
H            7.07097694508368       13.93766444792440       17.12265828420372
C            6.82996946862284       12.63320387418531       18.81382350008030
H            7.15040827833214       13.37507921356771       19.53610751315788
C            6.45823112636878       11.36363545665361       19.23254818459797
H            6.49861133938706       11.10524099386073       20.28486563115356
C            6.02923514666588       10.41718885113476       18.31077993445540
H            5.74202920907494        9.43497797033855       18.66695657055447
C            9.61600854792831       10.27301363392443       16.83741328200218
C            9.75807176295955        9.39587275532045       18.07547773939165
C           10.50254277885481       10.11522392449233       19.17508857659872
C           11.64578619223857        9.55485398808795       19.73714743583330
H           12.00450065820278        8.59461740983556       19.38525358815502
C           12.33810812198997       10.21572584458978       20.74145877432481
H           13.22834025450873        9.76503078821664       21.16572176867242
C           11.89794520623046       11.45149368525459       21.19253217116446
H           12.44007145157830       11.97126400538010       21.97415499200353
C           10.75944510918636       12.01884449011174       20.63680305100180
H           10.40796141752476       12.98412525086359       20.98402355992727
C           10.06602222047710       11.35500361508678       19.63605484618125
H            9.17624546970163       11.80614024393715       19.21229738149249
C            8.59685389211627       12.03916995788790       13.47501135412378
H            8.22505070301816       11.30589397345558       14.19182974363897
H            7.83510811994673       12.81103285468813       13.35403369237668
C            9.88958993147565       12.63287385863894       14.01455717234788
C           10.58172005997148       13.62521436016121       13.11223495434903
C           11.96990866783295       13.73405570453479       13.17304711145843
C           12.64157334692278       14.67289908056708       12.40237221963664
C           11.93316471572873       15.50822086535095       11.54981395141892
C           10.55125033226449       15.39963851146121       11.47610870510563
C            9.87878845597340       14.46797637903115       12.25488673727624
C           14.11561067364542       10.97087955587076        9.87797041300624
H           14.62341855969405       10.83667360246505        8.92289263853100
H           14.81664192035594       10.73198049995915       10.67791971602732
C           13.64014185031021       12.40936697735263       10.03900655666842
C           11.46133491526034       13.23945464479949        9.08341825569114
C           10.70070927969645       13.73372636132921        8.03420739998636
C           11.25838235353523       13.87224055782465        6.77238901168951
C           12.58153024017823       13.50680473555478        6.56353831405506
C           13.34544909105347       13.02236440173789        7.61512450223905
C           12.79584131083459       12.89120605102677        8.88984952002584