820
 energy: -1229.000020203332 gnorm: 0.000560068877 xtb: 6.5.1 (579679a)
Au           8.78397149324501        5.72753902409109       28.64516634555774
Au           6.86462993468584        3.66276220237443       29.73108633318263
Au           9.30347616479830        2.60627162378616       28.42698845832176
Au           7.32267030194946        4.34316567980807       26.65551918107075
Au           7.91790163585704        5.14893258959098       32.34278590806913
Au           8.57977868672348        1.82226173348111       31.08585353478869
Au           9.35636207625241        6.96510842681775       34.44238227280284
Au          10.54181716496924        3.59012526119787       33.67689158946240
Au           6.44100796488808        7.86349727152785       32.69836983609468
S           11.37034154971574        5.73607105431150       34.16622834189649
S           10.04099705133993        1.37393732301534       33.04182311570979
S            7.40137383814253        8.17628008736171       34.96233702034905
C           11.99095532967965        5.71483213018334       35.79875819744329
C           12.10913896217913        4.55649697524581       36.55211988672565
H           11.77978732472103        3.60974793322012       36.14092814788791
C           12.64076293588212        4.59956351336457       37.83332672176150
H           12.70174339137730        3.67092161861807       38.38637573990701
C           13.07597596319358        5.79925037103956       38.39311091029666
C           12.95165876893747        6.95943086418596       37.62298858717738
H           13.27521267706888        7.91570038843548       38.01813274986175
C           12.41660857640147        6.92296670581569       36.34762882343190
H           12.32672211720524        7.83445146371742       35.76877016817078
C           13.68059885591306        5.89016281648042       39.78724074952261
C           15.11656238864779        6.43220839455483       39.66709564533788
H           15.12218035387909        7.43191894905295       39.23377241385047
H           15.71042686548692        5.77564000104373       39.03012458151670
H           15.58343562500407        6.48022688135213       40.65124716891066
C           13.73618678111696        4.52944170424997       40.49581176223428
H           14.17458220032750        4.65413123224056       41.48664811673387
H           14.35267413246443        3.82383434863157       39.93851338179769
H           12.73671303328015        4.11138027201032       40.61705307312393
C           12.83192567104049        6.84611439723323       40.64471703777564
H           12.80833083315274        7.84565492560818       40.21150479453091
H           13.24750733182427        6.91711108821884       41.65029004530194
H           11.80928076654727        6.47451249515264       40.71582531330073
C            9.14978689025783        0.68584776192999       34.37840310719936
C            8.18343702468233       -0.28831893829277       34.16446016195047
H            7.94898913494773       -0.60389151042923       33.15587630409073
C            7.49983095531597       -0.84814456431087       35.23375490203528
H            6.74091425746076       -1.58784949395951       35.01396421708615
C            7.76232601784997       -0.45952617559033       36.54581905199474
C            8.74394550275146        0.51410067220594       36.74749584659754
H            8.98861535949670        0.84946025180191       37.74878019896765
C            9.42755005314508        1.07675837603099       35.68486725568643
H           10.18909465585170        1.82388566459187       35.87334868593987
C            7.05270473491539       -1.06629686166959       37.74846312588343
C            8.08441106926029       -1.86696345478685       38.56421799701273
H            8.89424878201445       -1.22163763675456       38.90372126886377
H            8.50935123413985       -2.66175262674766       37.95037805229705
H            7.60792568313892       -2.31518413906640       39.43648440426223
C            5.91341939684156       -2.01383879000446       37.34707042801215
H            5.41427827502175       -2.38368125099818       38.24353163082007
H            6.29471483925772       -2.87282965827497       36.79475122903636
H            5.17438094106785       -1.50002753945488       36.73296246036442
C            6.46985262699865        0.05836203630101       38.62284901674219
H            7.26008581284545        0.66058542377355       39.06965072316957
H            5.86532476257294       -0.36292053545215       39.42643196927570
H            5.83900520579139        0.71320423583307       38.02114032432250
C            8.12560860872779        9.76228954732300       35.01174294802216
C            7.58560733858328       10.84068601231514       34.32122055889323
H            6.69622978421799       10.69892047715359       33.71987470752992
C            8.18451584463969       12.09109307345326       34.39361776887792
H            7.73954770095616       12.90594274978694       33.83592194620542
C            9.32786796125073       12.30843478891779       35.16624699692038
C            9.86762776247540       11.21554972948852       35.84153372820673
H           10.76820191819800       11.31604382340561       36.43397994362265
C            9.27397718839453        9.96611612617296       35.77153652505171
H            9.71032208197082        9.13465710809338       36.31177237308692
C            9.95268910150650       13.69526963416913       35.22735412743601
C           10.98763681745035       13.81861119097952       36.35561373533310
H           11.84439531885663       13.16840740432418       36.17915416851209
H           10.54136673465134       13.56562730075698       37.31770002738715
H           11.35095296775592       14.84579332894838       36.40458522655791
C            8.85646258403068       14.74714154857766       35.47253515099774
H            9.30946852986344       15.72453616441501       35.64172419707935
H            8.26857170512746       14.47983363641579       36.35100564667928
H            8.18749618109433       14.83019845153530       34.61708774642061
C           10.65210913836299       13.97042551266045       33.88552021600992
H           11.47318431141722       13.26762776499330       33.74126164340833
H           11.05234655908701       14.98452780718800       33.86481317278670
H            9.95222829150869       13.85589925805442       33.05912694918923
Au           5.28971382004436        2.34104405518282       26.78988235411977
Au           6.47707986930216        2.80514449714448       32.98087517637909
Au           4.37449002742555        1.25745938329587       30.63595470257662
S            3.56000846839309        2.11003183241617       28.56613992889818
S            5.55978052276922        0.54595548669574       32.56848913120695
C            2.21346004866392        1.17083163629280       27.97974592526136
C            1.88499887747705        1.19243230636226       26.62913281086104
H            2.48897972129619        1.76407793339553       25.93512092296504
C            0.78971284306713        0.48452251115604       26.15853499009663
H            0.57194611458574        0.53766341887839       25.09910846817869
C           -0.00703311193829       -0.26503023804699       27.02166757312676
C            0.32430917427721       -0.26241969730126       28.37900537633509
H           -0.27827986566899       -0.81718403751969       29.08905514385877
C            1.41685961507196        0.43990487743449       28.85461043958391
H            1.65545935379249        0.41909622599634       29.91161046435085
C           -1.20397374529971       -1.07968542834527       26.55061803621204
C           -0.99823016296125       -2.55078619504740       26.95635954704476
H           -0.95526690498839       -2.65764802434170       28.03987257187704
H           -0.06485505465158       -2.92687812125379       26.53576058492162
H           -1.82021057181108       -3.16249686641810       26.58341709564420
C           -1.39191484111734       -1.02438030550236       25.02852188201318
H           -2.25321699928036       -1.62997112656495       24.74393381883057
H           -0.51495938969402       -1.41894069825511       24.51521691492694
H           -1.57084427902836       -0.00237087562468       24.69332561037141
C           -2.47634438187081       -0.52823134938064       27.21751777554544
H           -2.40859598441832       -0.59558440633955       28.30297277914747
H           -3.34975877645723       -1.09261903930999       26.88961338241117
H           -2.61450283205542        0.51842960452843       26.94376201880513
C            4.30853268528281        0.32961834634197       33.76383040432515
C            3.04943993597119       -0.13485526156705       33.40355382495530
H            2.83703645127942       -0.34222144919618       32.36200050442159
C            2.05430044615800       -0.30192064339715       34.35367133307356
H            1.08103865346551       -0.63355067053904       34.01547795806606
C            2.28878897432204       -0.02995172922964       35.69939361829572
C            3.55991379079407        0.42737364228628       36.05269337568394
H            3.78052535697430        0.67683284879893       37.08321365228508
C            4.55436028201207        0.61144108763986       35.10439577846077
H            5.52492474147698        0.98587548089836       35.40625680827536
C            1.22088637173968       -0.18239595400758       36.77321571442650
C            1.75891701783336       -1.08314677301369       37.89961818715791
H            2.61972016259974       -0.62906643333572       38.38929600526040
H            2.05996372275721       -2.04954984684648       37.49403407525938
H            0.98517903875761       -1.24503728896011       38.65060704921761
C           -0.06924966695356       -0.81287544965673       36.22918820669242
H           -0.78564549946140       -0.93365341402496       37.04261167745333
H            0.12894094813978       -1.79548742047006       35.80005202269162
H           -0.52546626717867       -0.17806837293856       35.46928072160717
C            0.88355454227444        1.20917166707275       37.33716692147777
H            1.76884200366872        1.68268085539397       37.76220968783169
H            0.12479183906924        1.12650518462086       38.11583305784406
H            0.50087226773036        1.85069510796339       36.54234938688697
Au          10.18778663673651        3.56583607621887       25.87299365228024
Au           6.16180595914594        6.38677312509839       30.22010077142029
Au           7.83402825603962        4.33035900601842       34.96748897684831
Au           3.14921647454041        3.49159817165335       34.68902407366596
Au           5.93849428765920        3.71230269334002       37.10698442228968
Au           4.41436290204030        4.30219993079314       31.02870458798562
S            8.24744712660491        4.16431622507061       37.40108846559053
S            3.57476915619864        3.53606358108406       37.01248068050013
S            2.79724767797377        2.96539733888426       32.41690736879797
C            8.19110674508130        5.85541497173937       37.86411754755555
C            7.03977764034496        6.63364972380489       37.81783499156295
H            6.12468853899127        6.22294955698492       37.40900943247534
C            7.03938646127488        7.93280069354337       38.29110801637405
H            6.10823988156431        8.48546076821334       38.25462868612766
C            8.19702629392815        8.52034776955619       38.80378687163542
C            9.35989826868402        7.74914497123016       38.80293612138581
H           10.29349341336639        8.15162020991690       39.17679414100501
C            9.35873726163721        6.43883048939627       38.34583465270079
H           10.26933575116134        5.85351081648322       38.38209926123332
C            8.13249692859203        9.91393299029710       39.41710008505243
C            7.43956799337769        9.77917539079997       40.78642047901743
H            8.00628262608905        9.10623539837330       41.43037198044519
H            6.43393332628182        9.37591482055138       40.66437949727334
H            7.36873471384912       10.75312474270083       41.27153093679049
C            7.31786914018548       10.87511657575789       38.53426161409632
H            7.34261250794261       11.87912755297583       38.95931041716680
H            6.27598907827221       10.56627811766790       38.46350282766608
H            7.73669504030282       10.91391946683621       37.53018709417034
C            9.52685130321463       10.52365924751731       39.62487357974869
H           10.10071681997344        9.95817205126100       40.35904336543525
H            9.42852528193561       11.54643332405883       39.99062260464530
H           10.08030125809288       10.54749589072736       38.68607563867607
C            3.12865314300758        5.14639134750727       37.53105224702518
C            3.76770403506719        5.73699037545499       38.61720631862573
H            4.54277299091355        5.19435674575969       39.14507962978754
C            3.41433907607311        7.00918177142803       39.03337472158235
H            3.93627440625380        7.43387269889102       39.88330535308138
C            2.41508861490851        7.73574159681775       38.38209936576825
C            1.75515234652584        7.11795154638453       37.32197210637877
H            0.95830389732958        7.62301433033107       36.79051092627830
C            2.10018296194325        5.84112050813067       36.90782294926749
H            1.57021384271085        5.38674185040902       36.07973051986131
C            2.06105248077530        9.13460361958659       38.86878195835175
C            1.10398257908606        9.86027725860614       37.91205796917200
H            0.14068018921485        9.35317224842273       37.85733686288927
H            1.53088805616516        9.92028620907457       36.91072049454483
H            0.92939967697575       10.87493742033085       38.27205166028655
C            3.34066792047521        9.97924866449984       38.99660817203821
H            3.08838849841665       11.00514648301218       39.26637171339710
H            3.87354865145838        9.98903235981783       38.04610548957708
H            4.00511456668532        9.58143210506287       39.76290460311122
C            1.38576382733888        9.01323051249616       40.24667052376725
H            0.47857096345080        8.41372998276629       40.16740566994096
H            1.12101837987868       10.00123870954445       40.62450930655747
H            2.05538169419635        8.53527111136645       40.96157748521551
C            1.14286094936962        3.23898625759136       31.93696758095830
C            0.83607927530253        3.30992838922542       30.58098663472072
H            1.63122351354956        3.27333965222097       29.84802807242288
C           -0.47523999639901        3.43337048341136       30.16584337014218
H           -0.67357373565052        3.48094485038654       29.10170124473584
C           -1.52543138835835        3.49857960595858       31.08357830235270
C           -1.20490255467786        3.44417040293961       32.43834952921749
H           -1.97728187896735        3.49815678953468       33.19564308157412
C            0.11010030376627        3.31396203498185       32.86231668391124
H            0.33260633964008        3.26334938795241       33.92224092757819
C           -2.95027178956993        3.62567452402003       30.56235961315756
C           -3.99122995493026        3.66404283737417       31.68960433330736
H           -3.82706282401036        4.52167458541417       32.34233210250881
H           -3.95539558661634        2.75144046020442       32.28484511450274
H           -4.98985992232153        3.75114439840663       31.25963857377412
C           -3.25922552912717        2.42038092639419       29.65566815401070
H           -4.28492288149870        2.47768220738738       29.29005692193159
H           -3.13754673847515        1.49110796504987       30.21299347193108
H           -2.58979039844456        2.39767044430972       28.79615532650336
C           -3.06845524299180        4.92721402131828       29.75072152513423
H           -2.83857725276073        5.78339673393337       30.38527400310884
H           -4.08204491811899        5.03884937440305       29.36419820365301
H           -2.37763494701976        4.92991868112739       28.90791436479520
Au          11.55860788860023        4.45427669131797       23.67740909946124
Au           7.24390217452716        4.01597632134423       20.88144789514715
Au          10.79520495613458        5.37782270351881       20.95626081879031
Au           6.26325379781171        3.17933040656496       24.32858853628034
S           12.90816199327188        5.72688018012732       21.97573438005419
S            9.01169514206661        4.76222836508034       19.51745813238175
S            5.29209326367318        4.09724118214336       22.21436218311323
C            4.07532579930401        2.94463491918129       21.71771123625185
C            4.19753035486576        2.16885283478035       20.57144962965534
H            5.07868660886904        2.26345070873977       19.94763863776138
C            3.18669336108082        1.28851481457287       20.20995062562847
H            3.32095635877306        0.71050733797806       19.30388689004155
C            2.02888210028650        1.15590295710942       20.97567703620916
C            1.92475035744060        1.93691576887189       22.12875917319890
H            1.04658631529243        1.87683950386198       22.76062164343796
C            2.93414546481037        2.80510511911274       22.50186158151532
H            2.83650511074907        3.38028909222606       23.41291808213848
C            0.87313850804384        0.25929075386495       20.54859186670476
C            0.20103974790416       -0.39408212915725       21.76841252664406
H           -0.33321956907411        0.34216025635588       22.36791283491921
H            0.94563367450310       -0.88187459008595       22.39606306839507
H           -0.51983683598860       -1.14330342734446       21.43938856958509
C            1.33080845539803       -0.86095486966484       19.60221723299059
H            0.49850049114823       -1.53730042480482       19.40392461195819
H            2.13923917289240       -1.43477547534564       20.05531012288949
H            1.67199286243786       -0.46154497454792       18.64750208250000
C           -0.15472346739259        1.14573049341166       19.82104370906561
H           -0.50493454788667        1.93835012923077       20.48292293741952
H           -1.01109963760855        0.54954474501675       19.50464758804807
H            0.29872212238249        1.60392451594383       18.94186571345212
C           13.77353358844621        4.34054248363442       21.33684400340796
C           15.13720386094285        4.48265287377447       21.10160129817060
H           15.60825765180770        5.44248012361081       21.27470298200081
C           15.88994491954332        3.40594585490666       20.66521509713722
H           16.95248239108425        3.55292243743374       20.50716624561722
C           15.31389344561890        2.15350035545845       20.44116073274759
C           13.94240408604683        2.02996208847668       20.64855101738457
H           13.43213011037596        1.08917325182377       20.48265262341548
C           13.18656354717690        3.10463797569663       21.08879598942354
H           12.12512757329262        2.96719740405881       21.25210747148217
C           16.19416729767462        0.99260695131478       19.99763794140145
C           15.40276109511665       -0.30864846183213       19.80886879655067
H           14.63993778589584       -0.19258834465007       19.03967466250319
H           14.92416249008634       -0.61317254923401       20.73868864544242
H           16.07925846226273       -1.10594319818548       19.49797209763763
C           17.27200549195473        0.75108986866926       21.07000262387019
H           17.88629263596284       -0.10864788401668       20.80061887200364
H           16.80094612285822        0.55563363043807       22.03373131693913
H           17.92201191249574        1.61964818390892       21.17376066940720
C           16.86224154012561        1.34995323146907       18.65813278953781
H           16.10022785155946        1.54686583929310       17.90327482336224
H           17.48613574322414        0.52304769640698       18.31744965902503
H           17.48872170410485        2.23599234865718       18.75735678306672
C            9.68983538401415        3.36503301262110       18.72168213784616
C           11.02653152370003        3.36190109436355       18.33389289317873
H           11.66360095337015        4.19825869488993       18.59539034920920
C           11.54349991119980        2.31187857553308       17.59678741871034
H           12.58644318838553        2.35514463192363       17.30470400517635
C           10.74719017855773        1.22840606585742       17.22000692932527
C            9.41407519181125        1.23435681315074       17.62686991276193
H            8.74914191854922        0.41954430222911       17.36934609704143
C            8.89170889935899        2.28541600917697       18.36442850281924
H            7.84882534307555        2.26852649553765       18.65799605036788
C           11.33416194340389        0.13279578617978       16.34014018569316
C           10.39353426172741       -1.07331538624037       16.21176312486953
H            9.47767440133130       -0.80488571760873       15.68520660394280
H           10.13347371372944       -1.46061543949692       17.19667010174074
H           10.88676134823421       -1.86586732550513       15.64800523281865
C           12.67251830576536       -0.35607230926043       16.92013393606120
H           13.04565538916453       -1.20147395415878       16.34145907525722
H           12.53861735537470       -0.67438306288529       17.95361173600500
H           13.42614756770632        0.43030132107007       16.89498222260718
C           11.57270282440730        0.72396090722961       14.93841313850064
H           10.63169355880065        1.07660290694992       14.51558671467344
H           11.99201281413820       -0.03446726263179       14.27663571058789
H           12.26561046808116        1.56372580187406       14.98943630087550
Au           3.23032835795843        7.59379335296893       28.29588992258324
Au           2.43178761829410        6.43512067305487       31.66168047885411
Au           6.70173830617760        7.10539556018593       27.14946317616074
Au           5.40230143939010        5.27577395470537       33.79576689975718
S            1.66392246635432        6.25973519542573       29.44721219564867
S            4.88927683173189        8.84093794092378       27.18914556164864
S            3.16039746123746        6.41093592268356       33.90103828313597
C            4.40514616510166        8.99029518633620       25.51915989946913
C            5.27987976800319        9.60191256614316       24.62331573205737
H            6.24678538237352        9.94787944168241       24.96907068249591
C            4.92782868031087        9.76980254786954       23.29325058886165
H            5.64431196511387       10.25039892493605       22.63866112864174
C            3.69600596447285        9.33100394359079       22.80874339945672
C            2.83104598629904        8.71138412454436       23.71344056475924
H            1.86321030857497        8.35004930213680       23.38550080157868
C            3.17742929715007        8.54088929220217       25.04409153652837
H            2.48537861140941        8.05520990019622       25.72190352448130
C            3.25837144710064        9.50538566837094       21.35994874606901
C            2.90653734205589        8.13039341129845       20.76349752206705
H            2.05780098482101        7.68476929798051       21.28166476157317
H            3.75415751412766        7.45130318092603       20.84862037757466
H            2.64894789279862        8.23422740511499       19.70913925139640
C            4.34482576418225       10.15734119456185       20.49343543931376
H            3.99480916671027       10.23108837003039       19.46307465544411
H            5.25941345509380        9.56548353537425       20.50010511718155
H            4.57319135968054       11.16294177742270       20.84744053336696
C            2.01063520344801       10.40642094246691       21.31850805389446
H            1.19423803143960        9.96880667701223       21.89232502624332
H            1.67707179380572       10.53642093721870       20.28845513765226
H            2.24358502961591       11.38663444759271       21.73467466289598
C            0.13595812198372        7.08983551560689       29.26733911105082
C           -0.47157216621965        7.07911501377344       28.01705874972683
H            0.01977058894374        6.58752505827772       27.18669921343677
C           -1.70346986618709        7.68651037851135       27.82958805625164
H           -2.14765589432168        7.63373108608769       26.84370733251681
C           -2.35268738523796        8.34165200182625       28.87542102130641
C           -1.73281109976376        8.33560665441000       30.12786541789530
H           -2.20359275383070        8.82343140305521       30.97375085024257
C           -0.51065476895148        7.71422048038939       30.32592292932458
H           -0.05604608735595        7.71712239543771       31.30970895843848
C           -3.68504292330188        9.05851119183091       28.70210974125639
C           -4.73469040677186        8.41113789216205       29.62273974626265
H           -4.42420609315833        8.46056315827831       30.66591981818680
H           -4.87523487071449        7.36455376012145       29.35172815622833
H           -5.68989698887866        8.92725497445988       29.52192379480451
C           -4.20428390817858        8.99489422771483       27.25871229875540
H           -5.15396253946634        9.52686152535913       27.19098479770351
H           -4.37038250196365        7.96340251219134       26.94717228185377
H           -3.50193704848279        9.46575714834665       26.57049006096446
C           -3.50664370932097       10.53858816562121       29.08563354217889
H           -3.20833275563355       10.64080117847193       30.12845832080923
H           -4.44215087368318       11.07928153471000       28.93994768804901
H           -2.73925993287614       10.99605388974936       28.46034027530131
C            3.16858129262020        8.11603538505968       34.31271706920698
C            2.20541516041975        8.95069021870749       33.75796721831031
H            1.41880013434745        8.52973939618181       33.14324076747105
C            2.25461604979014       10.31928176180004       33.95465111199719
H            1.49621906381143       10.92388101021108       33.47461299130062
C            3.26771619480903       10.90287247513468       34.71415195165489
C            4.17311829140082       10.04580756529407       35.34405281249737
H            4.95753759323922       10.44549083234846       35.97644826984721
C            4.12250550063003        8.67167506296967       35.15694353960743
H            4.84887541342052        8.03609852059796       35.64766081445947
C            3.38877813917605       12.41490582206015       34.86124748609680
C            2.96155695715964       12.81608768560306       36.28301140081582
H            3.59892643234125       12.33220040282964       37.02278242705481
H            1.92895326930827       12.51742610793098       36.46379202947653
H            3.04008920908358       13.89629819720065       36.40995303785722
C            2.51416775044492       13.16082743971334       33.84168996607252
H            2.71497138938179       14.23116225129722       33.90198589140940
H            1.45368263540465       13.00615980475235       34.03987134814619
H            2.74014425960480       12.82407023224890       32.82826606344907
C            4.84449868348474       12.85035976997426       34.62734521240763
H            5.51158734098167       12.43549040167135       35.38147039640605
H            4.92221907946040       13.93743591074751       34.66726376190468
H            5.17461736862347       12.51573201249167       33.64321717072665
Au          13.56538056790274        2.55336737663763       24.84447734786181
Au          13.06587356522659        5.95966066285628       25.66881851176459
Au           9.10134832185517        6.42111434350813       25.87178104139909
Au          10.46747703022222        0.04257839685815       25.39561298743741
S           14.77277333737271        4.31894704855773       25.81918887153032
S           11.35956624502632        7.56847337434029       25.90127665280941
S           12.16228784879416        0.99388328219456       23.74789401782724
C           11.26096727993490        8.74777152788951       24.61881808153908
C           12.20128891967145        8.86106465497725       23.60497812823222
H           13.03703583717878        8.17171314998001       23.55808098655155
C           12.06781606861527        9.85122804087241       22.64015354737076
H           12.82132749708846        9.90322579803820       21.86397264137901
C           11.00612306832698       10.75440096428076       22.66679229546564
C           10.06905526528229       10.62622012989070       23.69515790627218
H            9.22827293416662       11.30630027600949       23.76487432260091
C           10.18414196879792        9.63037085248533       24.64534188224993
H            9.43330347036043        9.53419978935144       25.41847444130358
C           10.85071864248417       11.88151672620011       21.65471587443615
C            9.38991251299968       11.96436395380138       21.17497667710122
H            8.72935579525590       12.30909942488642       21.97008454234396
H            9.04624331305463       10.98512888203307       20.84147111194196