462
 energy: -689.807711939439 gnorm: 0.000149993174 xtb: 6.5.1 (579679a)
Au           8.26086552669627        9.03202646395548       14.33263809212763
Au          10.09132904220850       10.12231361148991       11.26824113618550
Au           6.41615332823914       11.16928986230583       10.59691141255851
Au           5.91580029778476       10.05792086613981       13.29640195382665
Au           7.57181062852148        8.57767725683885       11.38599466165213
Au           8.80780078823254        6.26020285897868       13.06574784284001
Au           5.99369609390626        7.05375124689929       13.18165556887581
Au           5.21443031648791        8.07053351768585       15.85824562596909
Au           7.06163533218312        5.85884894539181       15.66870065123680
Au           8.73378933210724       12.62362681145939        9.94504101142192
Au           6.69356584182362       13.96604050319307       11.59154236689781
Au           5.24749683778809       15.52399813408335       13.45681808144406
Au           5.56142784067072       12.86525914474136       14.13052272428406
Au           3.76236255559510       10.92741316040636       14.94494244961880
Au           5.88637100913655        6.54899334257667       18.25828188513825
Au           4.34061379545793        5.48525273504068       14.69238116318092
Au           8.56384532438688        5.22100141262379       17.87510196890540
Au           9.04841560000974        4.03431318377641       15.24771021659587
Au           6.76974522864777        4.21128097670759       13.30825362827808
Au           7.21741723231855        5.69539912877684       10.83225572801773
Au           9.71439438092710        7.28957052081635       10.36165451473603
Au           8.68525606289606        9.73121084851795        8.96605776999003
Au          11.02236604326133       11.53351091764258        8.83538439576180
Au           3.92513425566335       11.54399381718074       12.05874371923960
Au           6.22655401791937       13.36540382224297        8.90343226313952
Au           4.64702533759917        8.99815119081654       10.99203757188184
Au           3.38516287263465        8.01663829916931       13.75055521288019
Cl           3.23145335491219       16.89545857721067       13.58938225427317
Cl           4.78257344154755       13.76662837277190        6.98784294966497
Cl           2.72876857111613        9.37621830301020       16.71677276448215
Cl           4.32975959514760        6.69831093531930       10.03347715155778
Cl           4.56270219144464        5.10605462545989       19.68968703999460
Cl           6.21191950502351        1.78316800442433       13.36586049748841
P            7.34720913904991        9.79511251090722        6.94831914410770
P           12.99674448662957       11.20266358867646        7.49783961105839
P            1.18454406086574        8.08894054342272       12.79196708151344
P            5.89448871258352        4.07352009279727        9.60206272888379
P           11.74840800645670        6.10564453206894        9.79946274069586
P            3.12526916061620        3.67490678509793       15.64128125934385
P            8.81561998948753        4.04561707831574       19.94515176791165
P           10.17638815626015        1.95140482734487       14.92405350436779
P            2.42611535270674       13.24736247493988       11.23207057173998
C            3.22784546903667       14.72426763836224       10.46398525024666
H            4.05339481783833       15.02708203018718       11.11464920836071
H            3.67984664800487       14.40704696383385        9.51975163824308
C            2.32395698746066       15.93119539550223       10.22294539672940
H            2.88703300866904       16.69314334382511        9.68366548512358
H            1.45180662983821       15.66332829548850        9.62726463001811
H            1.99262400223680       16.35827755870419       11.16850970465591
C            1.26545062184642       12.65257410460802        9.91999616842336
H            0.55898925785458       11.95302937417594       10.37662613511845
H            0.67831169463836       13.48272287528254        9.51680489324549
C            2.00924828356483       11.95072700114927        8.78221468027872
H            1.29182453266956       11.54571522843351        8.06804021443174
H            2.66683213530639       12.64274291490805        8.25654397758254
H            2.61492222378369       11.12923999154282        9.16822690290870
C            1.32728375951425       13.96759757107907       12.53329066333343
H            1.91555412899758       14.67730300372821       13.12321089738901
H            0.50939578739073       14.53072583580098       12.07505819674332
C            0.74920265969104       12.90316533144089       13.46213803366908
H            0.13018922413289       13.37322410063206       14.22667184874682
H            0.13703676811445       12.18974239590275       12.90920368776865
H            1.55048619234072       12.35393023294714       13.96009931117305
C            5.55299621461444        9.57456724135394        7.33890537716611
H            5.41507837672805        8.53879955689930        7.66545967576297
H            5.35581299946621       10.19643002832209        8.21842512918411
C            4.52398776754365        9.92007606892380        6.26532936293118
H            3.53203077949318        9.64668704363676        6.62740138294273
H            4.52938029150306       10.99001110126013        6.05959910416042
H            4.71564143188566        9.37495550446935        5.34158019744713
C            7.47825973436610       11.42648499212068        6.08687102494051
H            6.83431110121265       12.12416927812162        6.62967103794300
H            8.50147211350274       11.78529434514444        6.23047086600963
C            7.13842189601457       11.49333527049769        4.59807287310934
H            7.16554146282024       12.53587097534708        4.27927541986251
H            7.86262705596922       10.93578294251555        4.00489598086700
H            6.14444172169899       11.10132727077773        4.39318356729817
C            7.73660126133362        8.52948602717537        5.65609753997954
H            7.47710841941656        7.54745414182492        6.05849304036305
H            7.14272122651401        8.67468682568844        4.75035192796053
C            9.22624539794915        8.54287575160637        5.31167865111310
H            9.45840495492018        7.72794957973145        4.62539125426472
H            9.51045491996253        9.48312988908591        4.83961079700535
H            9.82661659384625        8.41916832295055        6.21444418996307
C           12.49161830131272       10.97221718117751        5.72812892693091
H           13.35000601456057       10.97900604863925        5.05173821232974
H           12.01194733243923        9.99347590100873        5.63242461271735
C           11.50030951313555       12.05287994070893        5.29734925393820
H           11.14887435045634       11.85653437791967        4.28389230048205
H           10.63885404484029       12.06386586775764        5.96674413818627
H           11.96031172067190       13.04020585094754        5.32047638839580
C           14.05861394583359       12.71341697999098        7.44734270804005
H           13.42997569880820       13.54390042848194        7.11000714679083
H           14.34420895261721       12.94555999920888        8.47614828290045
C           15.31735398174224       12.64641111678946        6.58430143665777
H           15.82143785846777       13.61294724340696        6.62066335920170
H           16.00617077634037       11.88764592160984        6.95516691950487
H           15.07766742266360       12.42482919397045        5.54445721985801
C           14.12938824926546        9.77394827170577        7.86159795811892
H           14.91664496940039       10.13246084083094        8.52954894044650
H           13.54769495897416        9.04751009172679        8.43637748766943
C           14.75997601474142        9.06204565727851        6.66529301278574
H           15.42896505794130        8.28052434893856        7.02900770221137
H           13.99820528895512        8.59540523353238        6.04075643137711
H           15.33985221849121        9.75043054715597        6.05216145654437
C            1.18400745652723        8.85037641314916       11.10822940673327
H            1.59658204123149        9.85824810177287       11.21705864613259
H            1.90093661302285        8.29112103754584       10.50022577674607
C           -0.15126915801138        8.92817026158532       10.37083734032330
H            0.01145689508314        9.36050486846949        9.38301327719010
H           -0.58764867206364        7.93816843601157       10.24270890657276
H           -0.86062358306160        9.55640772830243       10.90901256751027
C           -0.17431648501495        8.95846675480238       13.69929777846085
H            0.07227597436713       10.02370654496413       13.73288788926086
H           -1.12126430047893        8.86111896580714       13.16000426671561
C           -0.34418932374811        8.44150737103513       15.12847039905581
H           -1.11552247649423        9.02188052144519       15.63554053801791
H           -0.64245103349023        7.39310691706958       15.13276383913901
H            0.58594556614102        8.54036854877486       15.68673727874361
C            0.50775904261044        6.38803647131471       12.53361376346210
H            0.27492297772797        5.96319532408076       13.51478301089857
H           -0.42827006035037        6.42054549749311       11.96849177560915
C            1.50813746313195        5.47546677746143       11.82661792203577
H            1.08305889683231        4.47812421136180       11.71069592250510
H            1.76999459808587        5.86123504387130       10.84239092792044
H            2.42425042225177        5.39528317877433       12.41308586025660
C            5.26555640050491        4.48059958098381        7.90480020260488
H            5.19196038253515        3.57382454389047        7.29840739949288
H            4.26246298738544        4.90353370179794        7.99502201783318
C            6.16232882030098        5.50046929257428        7.20601285485633
H            5.74583257990532        5.75332709073752        6.23021637202851
H            6.22578067403219        6.40780899598635        7.80706548706432
H            7.17074869483486        5.11101325304840        7.06410105251207
C            6.86724893338866        2.51064576687895        9.35141580731397
H            7.01352643682254        2.05659142471986       10.33664424300717
H            6.31670289143955        1.78831277004247        8.74246166397005
C            8.23304894249225        2.76983527318462        8.71993636384203
H            8.82887433308612        1.85642493387888        8.72282937211363
H            8.13215180603242        3.11209340641894        7.68979668235150
H            8.76833804930497        3.53553422231277        9.28419404185369
C            4.43869845099014        3.42290670640893       10.53833784468692
H            4.83245040287213        2.88093961710784       11.40295896072260
H            3.87808509159727        4.27353873627653       10.92899349403704
C            3.49322706951819        2.50716289925761        9.76258445711159
H            2.70905205618625        2.15641028600910       10.43509208591490
H            3.02292249147033        3.03784627069845        8.93497579908596
H            4.01948859999601        1.63878600512255        9.36669807660064
C           12.12951555477987        6.02371534462588        7.99047225661346
H           12.41730232178711        7.02559988772013        7.65873485075694
H           12.97022654728533        5.35735882960822        7.78119548196539
C           10.90438241209825        5.57063363440897        7.19591435948478
H           11.11039878305571        5.63155581430467        6.12691719936737
H           10.64096348249681        4.54132647429719        7.43863808033224
H           10.04616726143699        6.20533933782647        7.42174457700787
C           13.26816709539606        6.80232811636839       10.60074494767696
H           13.14172705846504        7.88992074359033       10.61824260972351
H           13.25930600802568        6.47535561260336       11.64515794780125
C           14.62959536191953        6.48603900055474        9.98502653717490
H           15.40236212248296        6.99598759505998       10.56180676516724
H           14.83810680119842        5.41849507505850       10.00104889640844
H           14.68436150449403        6.83575864600102        8.95481559360284
C           11.65970007435200        4.34519412448106       10.34853171601035
H           11.33608605544695        4.36373817637386       11.39410553469214
H           10.84394376521179        3.87896395928687        9.78759596396516
C           12.91294839325658        3.47854759093918       10.24223326194589
H           12.64397521543349        2.44216362036708       10.44973650028145
H           13.35174333839361        3.52700881925927        9.24603069540909
H           13.65265053505324        3.78862575561473       10.97859512551179
C           10.70139177117922        1.53906599472878       13.20125118583032
H           11.61078213881733        2.10463040663877       12.97849658142048
H           10.95146588673822        0.47652977794482       13.13016845768324
C            9.62724586691887        1.87568895994470       12.16902199299954
H            9.98167731287091        1.61228887190647       11.17188180188237
H            8.70420582372492        1.33176397399215       12.36621029397892
H            9.40289254618881        2.94318284636383       12.18536579540710
C           11.70703261346553        1.72059261616238       15.93256446397847
H           12.42095626540979        2.48565167293428       15.61206572567991
H           11.45984010183142        1.93935769507324       16.97558209247694
C           12.37250603308148        0.34728055832519       15.84215645940656
H           13.25846056343607        0.33873174060500       16.47802598855130
H           11.69981562622620       -0.44167301278376       16.17810059822519
H           12.68130688583360        0.13132657518281       14.81997301970859
C            9.03791612653202        0.57526515931370       15.38736717435693
H            8.14899536219655        0.65904618839105       14.75333994902704
H            9.48900286623704       -0.40081842499562       15.18879276657032
C            8.61009530730413        0.66422066357528       16.85152156083486
H            7.84266562396745       -0.08158333206786       17.05932334992346
H            9.45317450174445        0.48908994710887       17.52070816216490
H            8.20076363867199        1.65198442957224       17.06805911308858
C            2.74527660174661        2.36864796932097       14.39341021523581
H            2.26817812099566        2.86090157621403       13.53996998926960
H            3.70120573538983        1.97725128234038       14.02872419990438
C            1.86800502920891        1.20922632592155       14.86524217209659
H            1.71233165575642        0.51979258323790       14.03481452904567
H            2.34454721782908        0.66316931873922       15.67869289045997
H            0.89536610868699        1.56440412050764       15.20607475346491
C            1.49060830655468        4.23376973413653       16.30174875630984
H            0.83527906948553        4.46830571408212       15.45708321346880
H            1.00987865192212        3.43736234503221       16.87685185794688
C            1.64363722290156        5.47714451306303       17.18064678625057
H            0.66735871205802        5.78810632162167       17.55347729072531
H            2.29350480398376        5.27703242712642       18.03235762372158
H            2.07337756244743        6.30004350127704       16.60831369471830
C            3.88333212314617        2.79349490713911       17.07363673129819
H            3.89229753213456        3.47478512210981       17.93019822932886
H            3.26768504156341        1.93373619545851       17.35434226773578
C            5.31254213824016        2.33388897114232       16.79700529280253
H            5.69799727280816        1.80714556452560       17.67058105217856
H            5.36222801022680        1.66876136499040       15.93574741554578
H            5.95617291683298        3.19253442427263       16.60132964673027
C            7.39456571042080        2.90939775787967       20.25958637721714
H            6.47367809130575        3.49963143639820       20.21098973880364
H            7.35279801789714        2.20602810812517       19.42182777595739
C            7.42751627313089        2.12908808012051       21.57379879402109
H            6.54925640263751        1.48490403099677       21.62652489002807
H            8.31828663958675        1.50431353360720       21.64015048814239
H            7.40952257209314        2.80313865787552       22.42955487258774
C            8.91650976299804        5.13304065412717       21.43281963045298
H            9.00057109325718        4.53371601611361       22.34391381131487
H            9.82839334998812        5.73349182139714       21.35517803235576
C            7.70917174171984        6.06373804899542       21.53597904711553
H            7.80078251872390        6.68920172305796       22.42429587540818
H            7.65481497901149        6.71245833399012       20.66039975494001
H            6.77683694749072        5.50385375217853       21.60186211661939
C           10.31044243997343        2.96156458477148       20.06222789754284
H           10.48190075806106        2.64856592292309       21.09594552732421
H           10.12272099922808        2.05751607561799       19.47425465955010
C           11.55905739811295        3.65978909380663       19.52440171923810
H           12.40719476703318        2.97530059146933       19.55509691530406
H           11.39990215795865        3.97418815169210       18.49188795999288
H           11.80039704532375        4.54227413609996       20.11560271900055
Au           8.31536874162443       11.89334984157134       12.96581290752928
Au           6.48469330847680       10.80301755512085       16.03009418544101
Au          10.15994699886604        9.75590371497931       16.70152805870441
Au          10.66027825196267       10.86740463597045       14.00192862075343
Au           9.00420779567662       12.34783781230842       15.91245618855293
Au           7.76826660689573       14.66504150878441       14.23268466723805
Au          10.58255262383969       13.87165306388131       14.11699357440288
Au          11.36185304074540       12.85487010174155       11.44029017117595
Au           9.51464105665197       15.06662774749614       11.62980795314746
Au           7.84252560785395        8.30184843260633       17.35325930515024
Au           9.88249814050564        6.95944299729880       15.70684371601322
Au          11.32866462189280        5.40152031593921       13.84149632820055
Au          11.01475323351219        8.06012181026833       13.16796575034920
Au          12.81404229280349        9.99793991289141       12.35347433238164
Au          10.68982631627027       14.37638802261388        9.04018151111580
Au          12.23548359653123       15.44025998103254       12.60591859658577
Au           8.01233357402226       15.70440220641311        9.42318093676070
Au           7.52769290221194       16.89111900557855       12.05079021404582
Au           9.80651834939971       16.71407096591512       13.99024163284083
Au           9.35879476656336       15.23007349534270       16.46608923097773
Au           6.86171963936350       13.63588873343053       16.93677204209896
Au           7.89099730496716       11.19417700339690       18.33243700169907
Au           5.55370980949320        9.39189039530375       18.46283486986109
Au          12.65115983691433        9.38145379320767       15.23981208230257
Au          10.34970815026048        7.55996230871072       18.39502212077875
Au          11.92938558885695       11.92722306912384       16.30638664277662
Au          13.19097975625408       12.90867798893511       13.54788727669766
Cl          13.34476202633019        4.02992373121141       13.70900501953806
Cl          11.79362518796024        7.15877804226986       20.31058245599509
Cl          13.84750406465570       11.54916662687065       10.58172743243014
Cl          12.24633670492460       14.22695629107097       17.26497539155333
Cl          12.01355469361847       15.81933451306715        7.60874788200222
Cl          10.36426374681766       19.14226504998625       13.93262625495396
P            9.22899033956327       11.13032121036333       20.35011116642631
P            3.57950332348683        9.72273734542186       19.80063396951674
P           15.39163824097472       12.83642892677358       14.50651535823029
P           10.68164528566778       16.85190740701571       17.69635952040132
P            4.82781128728030       14.81971849150101       17.49893557262920
P           13.45093478054465       17.25047650705919       11.65718950738189
P            7.76061090015963       16.87977613148578        7.35327939602462
P            6.39979801394532       18.97396198115771       12.37433091147522
P           14.15005794163311        7.67801746965823       16.06637119081944
C           13.34832658749709        6.20110265066334       16.83443611764862
H           12.52277766811442        5.89829766443413       16.18376799940101
H           12.89632722650449        6.51830473654905       17.77867741885584
C           14.25222320027307        4.99417550320832       17.07544275703663
H           13.68915781370622        4.23221208361214       17.61471120663392
H           15.12437717323569        5.26203731742534       17.67112036375431
H           14.58355004190591        4.56711620388368       16.12986597914567
C           15.31071031749246        8.27280776077828       17.37845783934699
H           16.01718990239383        8.97234266435807       16.92183969461034
H           15.89783403062753        7.44265442528402       17.78166263603409
C           14.56690095756492        8.97466169711101       18.51622748189473
H           15.28431787076044        9.37966816877496       19.23041220091502
H           13.90930448621498        8.28265156648992       19.04189013031989
H           13.96123918281137        9.79615218659417       18.13020255440225
C           15.24891297054491        6.95780944206134       14.76515256614744
H           14.66065348664015        6.24811216362493       14.17521233227190
H           16.06679756921340        6.39467473296993       15.22338365332745
C           15.82700831416565        8.02225388037577       13.83632687373371
H           16.44604008780624        7.55220872053819       13.07179935281190
H           16.43916092541266        8.73567061426619       14.38928384262507
H           15.02573302705962        8.57149319234048       13.33835650879569
C           11.02319573320957       11.35090927194467       19.95952491024097
H           11.16109237554219       12.38667788809925       19.63296393767883
H           11.22039985231474       10.72904086183468       19.08001355146282
C           12.05219147489265       11.00542758111580       21.03312088168991
H           13.04414890734091       11.27882871199614       20.67105992226641
H           12.04681226926465        9.93549499424658       21.23886511650012
H           11.86051400668489       11.55055650510950       21.95686027690774
C            9.09796243026134        9.49894135516970       21.21154436782246
H            9.74195639393773        8.80128063112225       20.66876716473309
H            8.07476633090913        9.14009843207051       21.06791148762623
C            9.43775831311041        9.43211802449972       22.70035349052063
H            9.41068541901161        8.38958092450771       23.01914919386977
H            8.71350458670513        9.98963089477366       23.29350860025160
H           10.43171104273445        9.82417995126930       22.90527570955419
C            8.83954429545121       12.39594595682441       21.64231381313729
H            9.09902857140454       13.37797877301030       21.23991581613825
H            9.43341538598957       12.25075422909951       22.54806596047018
C            7.34989464196292       12.38252982395674       21.98670894935287
H            7.11770932614723       13.19746690805155       22.67297451896964
H            7.06569847646996       11.44228072230015       22.45879481260636
H            6.74953238153653       12.50620366688008       21.08393269853241
C            4.08461867414098        9.95318745528541       21.57035057202579
H            3.22623763430107        9.94637705065424       22.24675007479997
H            4.56426649559787       10.93194021626763       21.66605307757573
C            5.07595848288684        8.87255017131092       22.00112681749602
H            5.42739766369535        9.06890254363973       23.01458048573038
H            5.93741404928196        8.86158377323879       21.33173375857086
H            4.61598294209223        7.88521225363244       21.97799786264863
C            2.51765484874904        8.21196820165719       19.85113059414222
H            3.14630568101104        7.38149561066963       20.18846978019939
H            2.23207074491166        7.97981957518110       18.82232276437705
C            1.25890703779517        8.27894785837536       20.71416385755918
H            0.75485100995749        7.31239619362607       20.67782016310059
H            0.57006785810424        9.03768490871394       20.34328234937941
H            1.49858354611968        8.50055638558704       21.75400467188749
C            2.44683091138179       11.15143535014839       19.43688720924509
H            1.65960508782457       10.79293088936753       18.76889458409940
H            3.02852857612448       11.87790569471871       18.86215277884715
C            1.81618495691258       11.86328923497922       20.63319132707805
H            1.14717830247287       12.64479748979550       20.26948004867767
H            2.57792632938064       12.32993984355704       21.25775568296637
H            1.23631655580108       11.17487241986505       21.24629434186917
C           15.39213427815268       12.07495173023529       16.19023510483387
H           14.97959366335577       11.06706799472095       16.08137115927081
H           14.67516448463615       12.63417159236861       16.79822358834892
C           16.72739253102643       11.99720565958792       16.92767174883934
H           16.56465644279901       11.56483245391289       17.91547710280970
H           17.16371711537332       12.98722568926766       17.05584880320053
H           17.43680329896893       11.36902371621017       16.38950569074092
C           16.75051304092035       11.96692210917540       13.59918793392573
H           16.50392103079389       10.90168316535255       13.56557238560259
H           17.69745296552206       12.06425748905174       14.13849751852299
C           16.92040087135351       12.48390978424693       12.17002715854906
H           17.69173654808393       11.90354339877367       11.66295327292032
H           17.21866771024094       13.53230889021266       12.16575731014710
H           15.99026987015085       12.38506275885304       11.61174958326113
C           16.06841135857291       14.53733083761397       14.76491158606395
H           16.30125125683568       14.96219644054145       13.78375372548157
H           17.00443568429834       14.50481420068363       15.33004032355842
C           15.06802274904311       15.44987634232248       15.47192489508511
H           15.49309489926053       16.44721698882996       15.58788095719321
H           14.80615009904747       15.06407781630915       16.45613566385185
H           14.15191841135729       15.53007871360333       14.88544976026393
C           11.31049846890551       16.44485233216032       19.39365438084278
H           11.38407898469126       17.35163469159942       20.00003767617558
H           12.31359041635001       16.02190673272078       19.30347868315383
C           10.41368698712541       15.42499794098292       20.09241304862718
H           10.83013700101664       15.17214885623682       21.06823136837550
H           10.35025524484512       14.51765172146732       19.49136826889064
H            9.40526363459361       15.81446355836779       20.23427280422239
C            9.70890833252043       18.41480506743786       17.94694088879845
H            9.56267251032028       18.86884317682473       16.96169882236540
H           10.25945001592712       19.13713880180629       18.55589821258820
C            8.34308245845867       18.15565615960891       18.57838042540444
H            7.74727813788085       19.06908002057157       18.57545752793351
H            8.44393827921603       17.81340738757151       19.60852716301367
H            7.80779416798428       17.38996322712070       18.01411454263194
C           12.13748266700883       17.50247341126849       16.76012468282439
H           11.74377714520446       18.04442131003288       15.89547042581105
H           12.69810179268009       16.65182329967035       16.36951895026507
C           13.08293984473296       18.41821913285735       17.53589370605246
H           13.86715486275832       18.76893076602959       16.86341117454692
H           13.55319377659903       17.88755176912347       18.36354153919571
H           12.55668129665490       19.28662137504944       17.93172791493472
C            4.44671520287294       14.90168681320306       19.30793019545953
H            4.15893203405405       13.89980856820343       19.63968956262824
H            3.60600953337334       15.56804815190905       19.51721997556443
C            5.67186357235744       15.35477705357601       20.10246067309116
H            5.46587233131808       15.29385944355853       21.17146321453611