872
 energy: -1308.832580205219 gnorm: 0.000677353496 xtb: 6.5.1 (579679a)
S           12.94166922831386       16.70595526297387        3.89358180645889
C           14.12249278442716       15.66820435307272        3.13168702043177
C           15.46225972509168       15.63046946759252        3.50961925336079
H           15.80997967348547       16.25234589144985        4.32457362248357
C           16.36904939798723       14.83152192272862        2.83263294184410
H           17.40204413405039       14.84283723118912        3.15913324561781
C           15.97516625481230       14.03634612151820        1.75602548854888
C           14.62597765315798       14.05923189089721        1.40074755964981
H           14.25699912109235       13.45279215526833        0.58304778689661
C           13.71290693199063       14.85647418308641        2.07676572213473
H           12.67183407721839       14.85672669326233        1.77624914431449
C           17.02348221321267       13.20628431876924        1.02533467112634
C           16.43816783414454       12.45495902257477       -0.17783087823411
H           16.03549318772063       13.15428627540327       -0.91100179599836
H           17.22091727970438       11.86772788912182       -0.65933902610835
H           15.64479488194571       11.77589756592446        0.13108586333619
C           17.64026982947635       12.18975880465933        2.00304369279919
H           18.13798323104446       12.69915690914811        2.82767881722067
H           16.86983913393124       11.54125558996525        2.41743230200101
H           18.37480881256313       11.57047087520492        1.48737762752016
C           18.13673624365278       14.13357649068753        0.50455480687092
H           18.62731866408182       14.65890043936248        1.32333456169208
H           18.88896044327303       13.55059167307504       -0.02789150691298
H           17.71917706982103       14.86983503424407       -0.18215316395226
S            8.08745489790410       20.86476147511832        3.32321459963169
C            7.41770242152641       22.37275474742666        3.91912454918579
C            7.97718737058537       23.10207160684894        4.95862494617369
H            8.88151169787348       22.74984518897720        5.44109994479831
C            7.36640897238661       24.26473508435005        5.40795693045793
H            7.81950873604660       24.78068977154700        6.24469435018865
C            6.19520851144843       24.73861357665950        4.82161929102253
C            5.64915187946420       23.99800911888228        3.77036108564771
H            4.73629054074832       24.32676331931619        3.28652824445276
C            6.24460832710190       22.83013887281150        3.32775185549714
H            5.80002351330017       22.26417970581286        2.51764532640053
C            5.48617547274407       26.00569587074248        5.28143390234494
C            6.22888321629927       26.72090974391960        6.41704938083137
H            6.33216003314327       26.06620943592961        7.28089591886547
H            7.21921306242627       27.04413888748677        6.09798969601256
H            5.66571412022006       27.60375996690142        6.72192597242695
C            4.08198131508914       25.62911665603900        5.78777817296459
H            3.48727150367494       25.17881507011476        4.99359483616391
H            4.16268998862907       24.91410858886447        6.60710534490024
H            3.56145411106969       26.51662904817028        6.14888026278439
C            5.37119042646961       26.97985556376615        4.09550607606024
H            4.77647935598289       26.55089485491534        3.28975907850006
H            4.89561036133921       27.90671254853504        4.41768595891125
H            6.36347856806860       27.21293092579987        3.70795460310211
S            8.24754024211290        4.21427687689797       10.61715990294358
C            9.73473817562176        3.31089924899653       10.44946302440214
C            9.83682741806156        2.43825404000417        9.36947722263425
H            9.01413944344633        2.35576655769170        8.66907296598371
C           10.97750174961867        1.67623480126183        9.19394271932827
H           11.01767554025084        0.99849894871589        8.34889150935294
C           12.05597192158048        1.76761680627847       10.07768193313519
C           11.94022266085452        2.64924824942707       11.15020342636233
H           12.74587497318643        2.76986827526529       11.86290437192990
C           10.79460518914047        3.41065629147657       11.33748801936074
H           10.73193333435547        4.09114186814837       12.17832770277546
C           13.27670903241937        0.88300722969106        9.86009189403394
C           14.43658226131392        1.24042409191775       10.79875100024264
H           14.73157425212176        2.28029074049573       10.66308923638796
H           14.16402266067738        1.08252912568609       11.84196961920527
H           15.29656456466347        0.60798747458529       10.57555238427457
C           13.77800782448683        1.02689178831091        8.41200526718710
H           13.99494322716995        2.07255786190440        8.19475255383997
H           14.69100606758274        0.44676680225166        8.27435828620285
H           13.03744548507848        0.67074503739155        7.69689992499325
C           12.86371854090741       -0.57694268266587       10.12062969423456
H           12.06833193873497       -0.88030149890935        9.44009798961262
H           13.71657441353862       -1.24118222261433        9.97804455467122
H           12.50334396468059       -0.68582369941266       11.14405728490221
S           11.60680295223429        6.83426700754093       14.70840036661907
C           11.58346366660846        5.09069761834626       14.71649220854385
C           10.37478642477533        4.44645858641888       14.97532988563912
H            9.49129531381510        5.03530924266411       15.18838813344638
C           10.29992479203227        3.06545554497104       14.97769670416390
H            9.33741611729498        2.60334691836615       15.16571847407127
C           11.43017292635325        2.27609311923444       14.74665031830693
C           12.64118950825450        2.93087371087972       14.53249251668948
H           13.55542674695726        2.37291918414773       14.37149077092052
C           12.71780507025698        4.31702029174649       14.51424070503403
H           13.67323232327690        4.79853110886807       14.34297920137293
C           11.28599701825121        0.76009038007455       14.72276408188017
C           12.62797911617645        0.04156184040347       14.52709977767326
H           13.07997115105677        0.31158805096062       13.57266456354448
H           13.32319007436828        0.28585968033660       15.33050308093576
H           12.46728316840106       -1.03719827601231       14.53060474867302
C           10.35441539349867        0.37579570072947       13.55872994101538
H            9.36947041962696        0.82541559045904       13.68271798005180
H           10.77552781786161        0.72412309580051       12.61525167648079
H           10.23794465672088       -0.70727393251007       13.51106547718508
C           10.67794474136689        0.28329073024509       16.05409803275501
H            9.67921458117322        0.69335254930955       16.19995302642962
H           10.60573302833545       -0.80470285019090       16.06320262348203
H           11.30758832761839        0.59853823030626       16.88647289656487
S            7.57225795523552       20.82939332439572        7.40101744155069
C            7.22480791534788       22.40526134030010        8.09481376534614
C            8.24936141826059       23.19505310080306        8.59683734254665
H            9.27341573509342       22.86360674581496        8.48082081343326
C            7.96761633688466       24.36493946797945        9.28076585655039
H            8.79544428616269       24.93226887242450        9.68846279428552
C            6.65214905137037       24.78672744334600        9.48534204080866
C            5.63347376508926       24.01030683218575        8.93048557952747
H            4.59450475527509       24.29002116017758        9.05248252614185
C            5.91221099625919       22.84233248943229        8.23628398382521
H            5.10161222774696       22.25369050227854        7.82405573453623
C            6.36719584348422       25.99049238619588       10.37484577252137
C            4.93111549358348       26.50981487235957       10.21009016546710
H            4.72162020654990       26.74845976222026        9.16727074390772
H            4.20434503914252       25.77523326365513       10.55779257653126
H            4.80024330759039       27.41581461962652       10.80279510230993
C            7.33565565268655       27.14666795276538       10.07177847428007
H            7.28900752898529       27.41810192228231        9.01752301985924
H            7.06573108877973       28.01961134086766       10.66680696807701
H            8.36327289431675       26.87955290021190       10.31621349890180
C            6.56192518308673       25.53681764763625       11.83321493322484
H            7.59397735854598       25.23070872212135       12.00224357676907
H            6.31869128817090       26.34737169948183       12.52050271130635
H            5.91636078260155       24.68476371686640       12.04778180744810
S            8.30954492490855        7.41234582789929        7.17684944219616
C            8.69239380381969        6.65287096066068        5.65110832751311
C            9.11345824674055        5.33106997497305        5.56117816238315
H            9.21818761184123        4.73716218138740        6.46190199536696
C            9.38122906700442        4.76611071351838        4.32512274468934
H            9.70562791335510        3.73206405165207        4.29295578030584
C            9.23409780174040        5.49723924600049        3.14461645239035
C            8.84144236689628        6.83096366682185        3.25300355833369
H            8.73191718627179        7.45260009700791        2.37313295706990
C            8.57613264080880        7.40404009657426        4.48610436302614
H            8.27462788601068        8.44337480594398        4.54582592813479
C            9.50322381573515        4.81961684840307        1.80682182900808
C            9.17761440818504        5.72789472511159        0.61314524815555
H            8.12770424266735        6.02137058445837        0.62367085364390
H            9.79500555221442        6.62579013632181        0.62274197965604
H            9.37397858422594        5.19269270668138       -0.31663320375159
C            8.62971593605889        3.55680475681348        1.69264112343280
H            8.88121948490441        2.83195345845461        2.46610418638258
H            7.57660225228427        3.82045705084077        1.79338321827642
H            8.78049257687188        3.08588188773681        0.72074460123112
C           10.98918733410831        4.42681523271971        1.73811494484511
H           11.23530766214276        3.70413897312183        2.51574994638529
H           11.22069585541925        3.98354627509088        0.76907875898772
H           11.61512720987886        5.30788929724690        1.87800462513377
S           12.67520197779164       21.59084615969618        4.02761228165110
C           13.63918377537180       20.57441755915091        2.98687917847940
C           13.10979523423648       19.65015180086406        2.09554204857072
H           12.03677120466313       19.50242609364972        2.05218427229756
C           13.93994140454844       18.91778330713007        1.26125973080872
H           13.47920798734332       18.20890371108072        0.58457235773243
C           15.32249148446948       19.09119415493495        1.28656115827167
C           15.84337299112445       20.01868460508141        2.19148250470267
H           16.91144976895547       20.19239862923995        2.24352777126194
C           15.02144381355058       20.74301350127514        3.03570918485384
H           15.44732829609532       21.45910946843589        3.72872597582413
C           16.26455353158900       18.36133362136569        0.33857186740755
C           16.79099594726600       19.38143747422496       -0.68786486124032
H           17.32251096474787       20.19001572876386       -0.18556812029561
H           17.47463568034971       18.89591794798953       -1.38498274413185
H           15.96139644410067       19.80972360128445       -1.25083307694554
C           15.56812359656319       17.21881227307004       -0.41396906379279
H           15.12895480325004       16.50614228471617        0.28380227078703
H           14.78590243205968       17.59916144227788       -1.07094860508332
H           16.29641092930999       16.69005138953622       -1.03030539239323
C           17.44969048873736       17.77348127016229        1.12227744703598
H           17.08859232477745       17.12499440017663        1.91984149361688
H           18.08579472519968       17.19053991142252        0.45612522635462
H           18.05994601518108       18.55969323519431        1.56438588600276
S           12.72431220901160        7.59791154669591        4.63421985164716
C           13.73945968640639        6.38073192629815        3.90005050405919
C           13.45460143163686        5.02863496475761        4.04753631790571
H           12.64218498392253        4.71960827569607        4.69445868377596
C           14.18582283883049        4.07107268387047        3.36095166701032
H           13.91808453203081        3.03203939769522        3.50610284450620
C           15.21910545589991        4.43256275013783        2.49922964559135
C           15.51909917573688        5.79267998923055        2.38445534895306
H           16.32005288936463        6.12307537528936        1.73293875283307
C           14.79669566713998        6.75225162549249        3.07406483646706
H           15.04575557435851        7.80061362381394        2.96243055733162
C           15.97774123814484        3.42170919000556        1.64936858483677
C           15.65860034605371        3.71136852377919        0.17059685282221
H           14.58439746702257        3.63626419663795       -0.00111244984878
H           15.98351282937248        4.71407561230740       -0.10639264250166
H           16.16719418396743        2.99222598535655       -0.47200317859234
C           15.57601060005105        1.97264184894345        1.95941767735755
H           15.76764693399703        1.73152400970808        3.00530247772112
H           14.52147866487744        1.80264743513486        1.74183123730503
H           16.16265173850105        1.29307686027413        1.34012265719616
C           17.49115939384795        3.55862227392569        1.88666486339415
H           17.72224519766642        3.37377600204813        2.93573667934166
H           18.03149789731965        2.83162301180056        1.27956781519717
H           17.84479179451745        4.55440333491652        1.62204858670537
S            5.26482804646046       18.60491063861278       10.84707605624885
C            4.54460673670384       19.93214512822352       11.73030189643437
C            4.22674362839672       19.76585876375124       13.07357575696971
H            4.51248604623943       18.85210826611650       13.58044361602405
C            3.54082305279017       20.75347255814614       13.76304311018503
H            3.30614929332807       20.57239719057973       14.80437147359809
C            3.16387435277005       21.94150961231203       13.13838886759807
C            3.52305452404938       22.11110446294220       11.79866835055699
H            3.26847115784843       23.02488966032505       11.27369382022017
C            4.19748969760710       21.12280579528625       11.10278243888194
H            4.45286134829889       21.27566619721508       10.06146357588000
C            2.35663137169817       23.02646995660064       13.83855744157093
C            3.11348396295591       24.36469070917096       13.77767771291859
H            3.29707082952879       24.66702229026020       12.74710573660374
H            2.52975490957826       25.14624990992137       14.26495433113086
H            4.07188568323679       24.27839455635239       14.28976331113760
C            2.07993596688741       22.69721784222131       15.31225456528113
H            1.50175610183442       21.77785224845737       15.40655397387976
H            3.01086219267079       22.58987358880954       15.86963015583150
H            1.50593844693785       23.50716326815041       15.76384350956313
C            1.00636461418129       23.16502468966914       13.11058005098204
H            0.47672169492974       22.21198862176525       13.12137492528014
H            0.38817697661508       23.91471208043708       13.60509818013033
H            1.15329164202949       23.46745483769370       12.07405363960228
S            6.16482845240602       17.55641049858518        6.00577452457643
C            4.72026313733225       17.97467551143601        6.89853785829710
C            4.16772335957464       19.24995237979317        6.88075600385096
H            4.60519397208814       20.01748402962409        6.25353168319499
C            3.05276314838466       19.54353836454224        7.65605255142810
H            2.66038986792698       20.55206490115453        7.61286732889399
C            2.45910904416972       18.57749310232369        8.46517697038238
C            3.00829863284928       17.29199674734298        8.44908839712582
H            2.57086296800551       16.50105665015956        9.04727782393720
C            4.12256264580094       16.99396363675041        7.68714044488924
H            4.54385600886458       15.99623749620106        7.71358709360217
C            1.22930574094813       18.86058712288552        9.31876585038790
C            0.01676688680515       18.19287484240942        8.64536264685480
H           -0.13329213662598       18.60689199892303        7.64801409764716
H            0.17536284457558       17.11831839235333        8.55405524037302
H           -0.88398657401895       18.36399074967822        9.23553497956645
C            0.95244719127573       20.36413843658730        9.46439410489701
H            1.81956089453600       20.87527551083880        9.88345431369101
H            0.70284952468121       20.81640241916231        8.50467816704423
H            0.10795132534990       20.51650940327643       10.13767564413606
C            1.41794440422084       18.27482727357235       10.72972221284267
H            2.35319480668159       18.63123901182201       11.16007893298449
H            0.59634527556096       18.58494876905032       11.37606061076878
H            1.43768521452025       17.18578407832764       10.70863460841202
S           13.09995889086483       22.53624303220055        8.90621944835775
C           12.52458778393276       23.58648870366122        7.63030629758118
C           13.22418172795491       23.68087635715909        6.43247279783577
H           14.13895000027202       23.11774877076187        6.29432156585057
C           12.75153632584855       24.47054754115975        5.40073054245676
H           13.30941815267841       24.47934890765220        4.47208309401343
C           11.57306626805368       25.20953913865048        5.52868797615524
C           10.90974349381988       25.15259200046560        6.75403781235055
H           10.00255397286830       25.71955711480781        6.92378635947228
C           11.38004831191370       24.35692296497661        7.79024657676911
H           10.85673546222883       24.33877701881720        8.73755663917184
C           11.06701728174186       25.99566937752607        4.32628958086422
C            9.84218868345765       26.85928073881315        4.65209014780995
H            8.99602385579931       26.23623699055282        4.93626747354335
H           10.05801705324188       27.55775880631873        5.46068951292767
H            9.55499738286949       27.43406735915523        3.77086463644806
C           10.67554491469917       24.98937619293061        3.22811153641757
H            9.88475286078347       24.33185634113915        3.59095748651895
H           10.31189183665309       25.51511895082182        2.34484975418323
H           11.52982910963769       24.37636886097327        2.94194659545897
C           12.17675966033537       26.92370577671160        3.80125694715580
H           13.04656386367450       26.35693334400943        3.47179769513738
H           11.80669375017934       27.50286548051340        2.95468896875327
H           12.48872246467548       27.61501851154150        4.58431165414264
S            9.32348089013588       16.19027572394297        4.59056999729785
C            8.82627731390519       16.76702827027593        3.01900541216203
C            7.48880408343490       16.83138124257396        2.65433114561802
H            6.73328603978373       16.39519838026986        3.29718580700237
C            7.11388303751271       17.49059513755239        1.49175285710416
H            6.05745304184976       17.54849287056882        1.26203688544874
C            8.06226505917456       18.09496318212381        0.66989751564641
C            9.40946474446916       17.96512489443939        1.02083622352514
H           10.18128249160132       18.40309253545649        0.39799309240597
C            9.79198107588297       17.31108905519383        2.17755058572598
H           10.83978827338977       17.24935340516181        2.45193799944122
C            7.68804780487763       18.93081862491922       -0.54598452363371
C            8.17184054188424       20.37224542229284       -0.29945372230229
H            7.75358824575648       20.74897900682412        0.63587729523150
H            9.25863877910093       20.41129631861352       -0.22799060492200
H            7.85506173085104       21.02267582722537       -1.11518227225683
C            6.17332092721098       18.96564904876975       -0.79361254945779
H            5.64964286581220       19.40971701629466        0.05325026087581
H            5.96377148755152       19.57081625266695       -1.67648522795168
H            5.78271298611134       17.96283973819606       -0.96844597171575
C            8.37042613582164       18.35461845171290       -1.79872557191016
H            8.05358138733256       17.32305148128995       -1.95522962553397
H            8.09758045672762       18.94109721148705       -2.67655649914877
H            9.45518089104563       18.37244114380123       -1.69805631557761
S            6.63664922156815       14.19202541636788        7.85040205045253
C            5.26744871162298       13.16358465467165        7.51826628401786
C            4.92328155643140       12.17556118237592        8.43002049943425
H            5.50167358488843       12.07159623948325        9.33571385725145
C            3.87489493265598       11.30537231510488        8.17774322971459
H            3.67390486893307       10.53380081244811        8.90994536978579
C            3.12609552970885       11.40919507770847        7.00897423275929
C            3.45191821960603       12.43813502447789        6.12034764362080
H            2.88475716726456       12.56708262993143        5.20529508438082
C            4.50813880934658       13.30089180402736        6.36156581169674
H            4.75650298695444       14.06910687400919        5.63843251044212
C            2.01078819828992       10.43387771683179        6.65763729716065
C            2.39770108611014        9.69510904999032        5.36339510504905
H            2.49869396280998       10.39231222584406        4.53197027190606
H            3.34863415181033        9.17865220329103        5.49940035276111
H            1.63469007075061        8.95986177418886        5.10618545546015
C            0.70069056265033       11.21184197460190        6.44360474617877
H            0.79507042067314       11.92000338492344        5.62096807792036
H           -0.11122086830956       10.52192403632842        6.21168787941694
H            0.44304885771176       11.76329713647817        7.34830168733061
C            1.77513060689495        9.38695264321660        7.75601057125747
H            1.48951798834687        9.86356859149295        8.69385005671013
H            0.96744736591629        8.71857551909815        7.45491518233226
H            2.66825896535341        8.78417484763979        7.92219515823501
S            6.56898839726231        9.57171429081942        9.75949833073709
C            5.78311934520115        8.08417930420084        9.30868883765180
C            5.70091539260166        7.04008313974818       10.22207269725077
H            6.06805795842381        7.18375993812174       11.23075738114129
C            5.18508796559885        5.80797028825840        9.84914612217291
H            5.17313196246332        5.02113422170988       10.59176173163723
C            4.72603776734993        5.58465438391298        8.55239957136938
C            4.72290625624196        6.66952847475590        7.67137459155012
H            4.34373553471915        6.55371096570325        6.66230467201145
C            5.23731468743322        7.89972603407019        8.04138174539514
H            5.26246803110687        8.71101032312663        7.32381686492475
C            4.29283841768492        4.21154387598207        8.06081599429047
C            2.82829655894654        4.26969461552608        7.59483400064147
H            2.18501867916249        4.56842974545494        8.42315552128026
H            2.70487246220001        4.98822727682217        6.78497516845574
H            2.50710316820001        3.29004193415788        7.23983735636644
C            4.42121697444369        3.13447123900026        9.14729356744512
H            5.45160597999950        3.05496970173076        9.49670402895106
H            3.77491863254824        3.35682509971649        9.99692925463392
H            4.12373550592897        2.16787600052121        8.73910872468371
C            5.20044603489572        3.81226768951839        6.88195730511245
H            6.24363222004961        3.80688529505738        7.20121825815488
H            4.93960130946768        2.81507151825286        6.52648892592240
H            5.09801200508637        4.51214610633476        6.05328002030963
S           15.64348277117272       19.16114357385652        6.89811687976361
C           16.92037116355049       19.76979459049709        5.86660643071407
C           17.21394618794199       21.12509143256958        5.78641583762802
H           16.64404462196748       21.83669279076804        6.37241550186413
C           18.22797447785387       21.56844263602185        4.95195614332794
H           18.41494639939972       22.63458417950876        4.89376018340004
C           18.99175215484772       20.67682815628544        4.19373592098945
C           18.68926230674358       19.31958750141370        4.29430829029853
H           19.24662332948152       18.57987816962153        3.73427087126844
C           17.65965196380825       18.87236175999891        5.10679557543543
H           17.43060492896568       17.81530667382682        5.15033202324390
C           20.09452963504575       21.21194138506225        3.28984290219550
C           20.86366019075049       20.09390261028653        2.57208774815826
H           21.33229548330981       19.41994661991023        3.28966559633368
H           20.20417905190439       19.51829648553850        1.92243945698047
H           21.64848499119023       20.53189650805045        1.95427814310910
C           21.09846430015167       22.01655161579217        4.13448864399788
H           20.61698728261555       22.87058076489058        4.60936935705676
H           21.52552569256115       21.38188654669429        4.91146916246713
H           21.90740389759419       22.38586776390841        3.50351116204776
C           19.46390684921396       22.12768613602254        2.22546559852906
H           18.94022749907176       22.96274790727204        2.68979051340885
H           20.23678604595426       22.52621836931938        1.56771103610885
H           18.75091943207179       21.56424724975820        1.62261754485374
S           15.72772065355544       16.20117658660309       10.69253352024147
C           17.36027406406271       15.79519109885380       11.16541025662909
C           18.17912015882674       15.13461369048906       10.25427488396790
H           17.79737625051237       14.87616733499859        9.27532567569384
C           19.47216262907845       14.78996385845949       10.59935256695853
H           20.08176266246846       14.28427507220901        9.85922235181407
C           19.98413096949017       15.06807493843408       11.86933692824909
C           19.15336936620212       15.73096983318862       12.77087307747365
H           19.49797405173523       15.98031862640047       13.76689054626788
C           17.85973420654700       16.09661055973097       12.42479694594593
H           17.23349083815080       16.61208093516655       13.14386720566610
C           21.41832592354280       14.67418268814562       12.19768526156589
C           21.75960343532337       14.88711257564726       13.67941223358905
H           21.69811163778249       15.94109403424518       13.95053961504424
H           21.08402758477607       14.31579118795604       14.31690651098009
H           22.77835598073720       14.54812388952602       13.87108966764790
C           22.35930454570893       15.54183078595090       11.34155317508315
H           22.17325536535398       15.37774817882839       10.28006922473456
H           22.19866449395367       16.59761779702965       11.56164875783463
H           23.39947037212336       15.29361555003868       11.55453291461807
C           21.64762371882274       13.18869578665753       11.86683654995822
H           21.50136155020482       12.99122883330424       10.80550839755578
H           22.66642290077187       12.90128005396519       12.12860274927071