200
 energy: -298.416963739977 gnorm: 0.000760382898 xtb: 6.5.1 (579679a)
Au           3.04565295159509       11.42682418693694        9.09169272943594
Au           5.17131045041365        9.40630919008055        8.91748794734052
Au           3.85499252191286        9.61952689000602       11.32115233649097
Au           2.61109098506188        8.61366278694332        9.02368087130379
Au           2.01802325524265        8.93185675179890        6.11718967699411
P            3.42853592168035       11.67826189780860        6.69672870661559
P            5.22955218098331        9.23256899491806        6.42065249668730
P            7.40129577570484        9.60335728276306        9.99685971681769
P            5.88945952027748        8.51924363582131       12.41371789043933
P            2.43549705418566       10.73118554441136       12.96987551211081
P            2.27281653015002       12.91286182708786       10.86613882690703
P            0.52878799083109        7.48313109412299        9.25696034465713
P            0.01704134866393        7.72171804760657        6.30917664447427
C            3.75732182143815       10.12399576951494        5.78920911650055
C            7.36236358107199        9.49974021789948       11.85691130427443
C            1.37062569941565       12.08182301744815       12.25849515307239
C           -0.14982163866577        6.60209396501952        7.77765071212928
C            1.99563332962081       12.41926624425181        5.84556455840447
C            1.28449134469157       13.40469786343520        6.53608106018258
C            0.17498981029332       14.01318906106799        5.97280423519527
C           -0.25009141926734       13.63938332155109        4.70406904574506
C            0.44348509729993       12.65974243693102        4.00702341312919
C            1.55842114118196       12.05498365690601        4.56964512547950
C            4.79094354221823       12.82744493693130        6.30067237692271
C            5.87623669958970       12.89289334926262        7.17744132658761
C            6.93614645992617       13.74874007534412        6.92748983023927
C            6.92695506014189       14.55203699456488        5.79501594557991
C            5.85149180390151       14.49999013602598        4.91849949355644
C            4.78747012372076       13.64723060647460        5.16872926747309
C            6.66679180219578        9.73271097160422        5.40733606490427
C            6.67274670517047       10.77583666846810        4.48200092359517
C            7.84111843735444       11.12237165969154        3.81905141573314
C            9.01840631402732       10.43140850758671        4.06626538915582
C            9.02474274455831        9.38264665142664        4.97763010952629
C            7.86129954186501        9.04126557806638        5.64805614627325
C            4.91423870674502        7.54622981952876        5.77679484779696
C            5.02782661178219        7.24541652957978        4.41697895861923
C            4.71477537260067        5.97909943414300        3.94839772074642
C            4.28955877390842        4.99194385112945        4.82781803596349
C            4.18484846419338        5.27361433093493        6.18282988566450
C            4.49899135822022        6.54020152690153        6.65080062223672
C            8.58276853785750       10.95245312750109        9.64944819409834
C            9.08362269124882       11.84933783454381       10.59515813765464
C            9.94056692501042       12.87058441206142       10.20957346625146
C           10.31076962275710       13.01319019059707        8.87993937534100
C            9.81584541831340       12.12955246605816        7.92843501416234
C            8.95380017315459       11.11504813172946        8.30995418330237
C            8.38113460958336        8.13022054511106        9.56374406385058
C            9.72533514705640        8.00252699552857        9.92837545836649
C           10.43970099875936        6.86608422308447        9.58495765863143
C            9.82810138222128        5.84411817717560        8.87012237370037
C            8.49592942360208        5.96106040984164        8.49881174759908
C            7.78020076338442        7.09688791603864        8.84300282022163
C            6.31365233853937        6.81766310111140       11.90501493899604
C            5.43382630312301        6.12392898482073       11.07186926175775
C            5.72805023101029        4.83818156541515       10.64419702460897
C            6.90693513664929        4.22769563116721       11.04876136128480
C            7.78480789092345        4.90316280414843       11.88727370672255
C            7.49136088861395        6.18706484343975       12.31729309835326
C            6.03913930519574        8.45728770550864       14.23161045761201
C            5.03220275101340        7.75569189828569       14.90615765852311
C            4.99798113422781        7.72201185208528       16.28996883164415
C            5.96286897873864        8.40081145535118       17.02414617215374
C            6.96112073028567        9.10538770024603       16.36713637056319
C            7.00107214294033        9.13743983420486       14.98035042907353
C            3.30409689860727       11.59213043236666       14.31561648103906
C            2.62482761253525       12.18108249566002       15.38787585977003
C            3.32774789516229       12.83613144847314       16.38595958252750
C            4.71379461108102       12.91274101876815       16.33172615913569
C            5.39798207777003       12.33227759147517       15.27310041710793
C            4.69633929084436       11.67723960537152       14.27350687537990
C            1.25339027590678        9.64675189759451       13.83178421896908
C            1.60958888903621        9.03973151766309       15.04046385947280
C            0.77943679068111        8.09803998932222       15.62835380517836
C           -0.41388034394218        7.73834088951237       15.01635816849330
C           -0.77031070557747        8.32087520167011       13.80757936602208
C            0.05994469057476        9.25872836955837       13.21496190099990
C            3.68752224849059       13.69993009211619       11.69478853146910
C            3.52203540713187       14.64471509859435       12.71258208407424
C            4.62630596275557       15.21208680608555       13.32732862323474
C            5.90912294979878       14.85331538934012       12.93235067687812
C            6.08593082741093       13.92431274830694       11.91654218280909
C            4.98205979744001       13.35229670157704       11.30377612361519
C            1.21371080540294       14.32095737043074       10.41095455610860
C           -0.14412436695776       14.40863725445691       10.72528851491025
C           -0.90905006913189       15.46026752395353       10.24173336862707
C           -0.33419066228684       16.43195221106475        9.43489402504181
C            1.01509087406914       16.35407375059931        9.11303581422646
C            1.78178794607873       15.30430485611490        9.59104485089186
C            0.48974698283651        6.27379619667134       10.61521150818970
C           -0.31279298546686        5.13019759701860       10.64105557094919
C           -0.27344953872944        4.27255785067790       11.73057283245233
C            0.56293364528944        4.54045064082907       12.80562273878950
C            1.37023090674916        5.67045950977389       12.78877410417269
C            1.33458484902954        6.52583361906510       11.70090650565522
C           -0.80433712288238        8.64679180975962        9.69186979927316
C           -2.02546055253784        8.22331217822078       10.22429401725067
C           -3.00794257054117        9.14624749274896       10.54753650308217
C           -2.78857319174021       10.50260105454625       10.34487959768904
C           -1.57943054035422       10.93595130473610        9.81826029633755
C           -0.59462027938507       10.01391699707619        9.50004322890665
C           -0.36298959150796        6.65474434776278        4.88908413494328
C            0.24697918049115        6.96489793398537        3.66975779538564
C           -0.00984293899314        6.20900123917289        2.53768327753171
C           -0.87789402416245        5.12801482345051        2.60878346141485
C           -1.48551497135417        4.80624519460277        3.81510105267852
C           -1.23331497308036        5.56193410473427        4.94931586397542
C           -1.41134695747850        8.83657514152362        6.44833060044369
C           -2.71893270666539        8.37485981493482        6.62898375477271
C           -3.77040029210970        9.27137315997432        6.72973026476176
C           -3.53696818307631       10.63812566226815        6.64370301384765
C           -2.24507044505775       11.10779073251059        6.45430453054618
C           -1.19156821611891       10.21274137366004        6.35765442552423
H            3.87725613643459       10.32804754738749        4.72550023254704
H           -1.11768273141194       14.11213392114775        4.25933408683042
H            0.11824814871486       12.36494718478408        3.01604643949237
H            7.23253345163599       10.50676069640902       12.25598622999311
H            8.30211633882152        9.09780583243022       12.23929772821933
H           -1.18516816046477        6.29496869698595        7.93025935170660
H            0.45120484073031        5.70838155525366        7.60087452112618
H            1.60813547494662       13.69547208702020        7.53023915029291
H            1.07909552826844       12.79393449541419       13.03238707159945
H            0.46343417545465       11.64018884562350       11.84445096264808
H           -0.35821429695803       14.77843167670112        6.52571503842872
H            7.76979146178355       13.79131917144101        7.61879272860596
H            8.70361093243361        4.42637204933498       12.20824284172092
H            7.08364336623062       13.64537326958496       11.59656035517730
H            5.12210480109441       12.62797709776513       10.50818787589468
H           -0.60867899864282       13.66105855176223       11.35801870146220
H           -1.96044328614356       15.51862237517016       10.49870737695547
H            7.71591180443694        9.63631027002924       16.93566601952581
H            7.82815298422831       11.93800364944192        3.10517081632625
H            5.76224133100297       11.32358867557095        4.27145752482820
H            7.87013072622760        8.22093263695311        6.35943600238342
H            7.75560145188749       15.22233220737846        5.59945074971562
H            9.92952856615502       10.70596368014110        3.54810357568862
H            6.73702794217240        7.18322171239983        8.55951482674096
H            8.56533701907541       10.43071876855689        7.56282718307030
H            7.14095468832890        3.22401686615186       10.71408967394278
H            4.21628416899446        7.16830611587460       16.79728864953134
H            7.78752162992404        9.69498619431621       14.48505733016300
H           10.98397681421554       13.80930964432429        8.58523313069002
H           11.48058195882668        6.77877785974845        9.87391968032276
H            5.88517562642631       12.26577365784663        8.06474259959896
H            4.80326268730923        5.76129010729240        2.89036615475387
H            3.94834970554618       13.61642548498349        4.48306456670220
H            1.54330631730347       12.12031469144571       15.44061621367012
H           10.32466009877367       13.55521750498227       10.95701170598906
H            5.93468008662598        8.38073159919762       18.10707189891781
H            5.25967942291903       13.42453950240294       17.11540116121771
H            3.86259404997701        4.50673288392952        6.87822775202182
H            8.82086312050867       11.75026724477582       11.64190564236274
H            2.79122850640622       13.28789650990137       17.21209642208953
H            4.42323083347633        6.75293869103489        7.71240286459273
H           10.21299136433250        8.79991135089323       10.47861032841503
H            2.09234355330844       11.30112830192651        4.00404857911098
H            9.93862176975153        8.83258289575784        5.17022132591298
H           10.10131021811790       12.22931091108507        6.88745462182839
H            6.47932280651855       12.38859126562964       15.22371164662877
H            5.23044165212554       11.22865166755457       13.44238303912077
H            8.17945075175711        6.70543745050996       12.97609617528749
H            2.54227519373991        9.30928247980053       15.52396256923955
H           10.39082500856177        4.95807317398141        8.60115637763081
H            1.06736947851978        7.64248096686110       16.56873185999807
H           -1.06152542915333        7.00186636725274       15.47687193141526
H           -0.22367454304042        9.69014662793484       12.26161517561328
H            4.51051105943342        6.59877894353277       10.75537343096608
H            4.04549518293560        4.00290621025392        4.45841321238199
H            5.03605205715215        4.31486757608766        9.99413669585326
H            4.27165057137594        7.23285655302769       14.33321637066394
H            2.52387209200903       14.93517997127611       13.02142779352591
H           -1.69491752046141        8.03930392361594       13.31609394385411
H            4.48584462516593       15.93999514315351       14.11781827225491
H            6.77005459827597       15.30187908892259       13.41372581817978
H            8.01124086325207        5.16786596793984        7.94133125799819
H            5.83890995521805       15.12881431657276        4.03589817300929
H            5.36097845011954        8.00963379261526        3.72379164693004
H            1.47060676625901       17.11154465814323        8.48594897902672
H           -2.20503593204473        7.16666437763570       10.38875399810504
H           -0.93575541433376       17.25066283373171        9.05841223748699
H           -1.71399496550980        5.29667865507105        5.88405878227811
H           -4.36278537601196       11.33530681896912        6.72154670742539
H           -1.40318605667240       11.99193233926601        9.64727046499649
H           -1.07906496654450        4.53428162141722        1.72504811722807
H            0.93040268419850        7.80647715917994        3.61489447030692
H           -2.05293917643543       12.17225772040069        6.38207850755181
H           -3.55935962108395       11.22121251391465       10.59689913204755
H            1.96936343599849        7.40676736495706       11.68839282477688
H           -3.95041229163512        8.80447433979585       10.95906575891081
H            0.47050908533274        6.46309278371559        1.60006959717199
H            0.34905670498471       10.35586280051004        9.08783417341634
H           -2.91641783165678        7.31038603987230        6.68934129300627
H           -0.90071073264066        3.38863384559009       11.73803698151126
H           -2.16147522690175        3.96122400415323        3.87508448767680
H           -4.77872238089719        8.90076970603161        6.87305609248017
H           -0.18141398922952       10.58136067568844        6.21418477669162
H            2.83572455340731       15.24538570589596        9.33840517110499
H            2.02918042508125        5.88620254933646       13.62247042956099
H           -0.96759655920123        4.90399982797356        9.80735122340282
H            0.58955089714096        3.86678034420635       13.65386819636422
