210
 energy: -314.282741523386 gnorm: 0.000617847124 xtb: 6.5.1 (579679a)
Au          11.37061364072636        5.17033719114215        5.95730370806578
Au          11.40296749934517        4.65006521282829        2.17014935299273
Au          14.28796216054274        6.73331133768135        3.65389706939050
Au          13.32903341362612        4.12461921311027        4.19649763684497
Au          10.49687921764846        7.87264711738157        5.35921749940551
P           10.63669313620995        4.27743036205266        8.01934820527000
P           11.00763982825778        3.22137401035562        0.35432316558498
P           16.47748167085001        7.41592249631529        3.14546841675933
P           14.68375700004411        2.17250931704586        4.33920914308154
P            8.38249551323179        7.48416951652450        4.28563596790465
P           11.88595115135360        9.14820992592767        6.83770238042236
P           11.99039274210908        6.19510018144786        3.86413434429889
C            8.21762068075672        8.19858203254088        2.62065117245389
C            6.97699915377925        8.44897500211216        2.02850218470954
C            6.90684166837938        8.94707039778634        0.73686138755228
C            8.06887081762020        9.19931104863593        0.01958107901587
C            9.30705480027637        8.96042164440947        0.60123883764131
C            9.38074079109871        8.46848890702273        1.89459840032703
C            8.14928981691457        5.70165918457441        3.98188519153430
C            8.01401243091456        4.86643370858503        5.09469255405331
C            7.86832211033974        3.49670082241314        4.94547584961548
C            7.86197892964848        2.93576034732632        3.67494207574897
C            8.01556075287549        3.75144184114091        2.56230351590238
C            8.16684011481239        5.12451855957673        2.71092537437683
C            6.87083917678565        7.94664421542437        5.18620700322802
C            5.68904238116721        7.20215571753144        5.12960976446597
C            4.58208125751651        7.58924982453955        5.86922590725849
C            4.63644893944533        8.72075579159704        6.67150364424258
C            5.80381551754865        9.47079406226770        6.73163255351974
C            6.91306788539653        9.08495783955384        5.99609729706457
C           13.62658556597204        8.61808775710797        6.98830646081330
C           13.89369306599180        7.28307359260409        7.30364391187109
C           15.19455865766144        6.82788346510121        7.44270966910370
C           16.25773759722021        7.70539194339224        7.27147528103193
C           16.00790639528428        9.03193592962879        6.95175307901167
C           14.70551334236368        9.48544113902378        6.80441004059144
C           11.29378607768859        9.15291932471065        8.55775334396789
C           12.11420254847145        8.90522868692621        9.66009281329295
C           11.58027862653460        8.88267074487995       10.93993293135556
C           10.22488797790563        9.10334114048425       11.13885458627392
C            9.39906556711340        9.35225427073737       10.05019171968754
C            9.92817770333065        9.37180859865299        8.77016210881946
C           12.02716173832014       10.89479799254087        6.36113726414591
C           12.06815505826454       11.93984121235760        7.28672274951258
C           12.20148989633165       13.25028015767974        6.85328043734141
C           12.30007683475168       13.53250664825506        5.49779177552298
C           12.25654353233644       12.50039623455358        4.56899807716740
C           12.11471610056567       11.19050230457972        4.99702649850839
C           11.62291590886456        4.76884061519677        9.46433668814907
C           13.01451757379931        4.67660736310863        9.35675867059812
C           13.83097248481376        5.05482061717274       10.40967234132949
C           13.26890876359908        5.53904747202925       11.58406143979589
C           11.88953268107500        5.63939972406769       11.69949522285102
C           11.06878836004560        5.25975979322822       10.64750979050808
C            8.92926579688982        4.71421908587474        8.45975933851731
C            7.93943038770273        3.77212944309629        8.74293670971189
C            6.63719743257954        4.18044175904318        8.99419042386482
C            6.30669113456472        5.52780599360418        8.96463092846846
C            7.28394595320350        6.47464945785374        8.68395603072486
C            8.58348210585586        6.07065292509232        8.42721223153361
C           10.70665289938515        2.46182057840227        8.01622017796149
C           10.57610282936943        1.80129300614082        6.79075390115343
C           10.66018602143917        0.42009123779033        6.71997871344346
C           10.88792375342712       -0.32074252886293        7.87225032110140
C           11.02363149262634        0.32436831582229        9.09425298791333
C           10.93323100962936        1.70606375669767        9.16955480583285
C           12.46010929380267        3.09237687278146       -0.73127149230482
C           13.72123112075200        3.12792457483811       -0.12914088442442
C           14.87249628244800        3.01308654486029       -0.89092543449558
C           14.77820380637950        2.87339103326680       -2.27000294131428
C           13.53131398575559        2.85074737537807       -2.87987310770245
C           12.37689680859112        2.95820574848748       -2.11829827955032
C           10.61450045537435        1.49625894128693        0.77153164613646
C           10.60735138579424        0.47148278570749       -0.17929451932154
C           10.24580729783126       -0.81704183890653        0.18331771680928
C            9.89500335226680       -1.10189128959373        1.49676305452691
C            9.93107918606346       -0.09847699144487        2.45547861117577
C           10.29332846587935        1.18986637437058        2.09555511868411
C            9.64816935501580        3.80951124441209       -0.69750722352771
C            9.55250365414122        5.19442199987431       -0.87565974847588
C            8.51332594581834        5.74364866624701       -1.60737812581231
C            7.54769232967776        4.91747113486284       -2.16822838731943
C            7.62743229710512        3.54344317214127       -1.99200078272314
C            8.66691656756490        2.99000223916837       -1.25848394166531
C           17.78084841142490        6.34469705931340        3.82645015157730
C           19.06201470031114        6.25027449250757        3.27652162169539
C           20.00055041199195        5.39229603439748        3.82962803206004
C           19.67641706089308        4.61820804909607        4.93576718701595
C           18.40481157840909        4.69905930393289        5.48679483882683
C           17.46345213550356        5.55014713575043        4.93070216168281
C           16.88342756875530        9.10409151315648        3.67980159041260
C           15.85619409219909       10.05144399598313        3.62595786270581
C           16.07466421365866       11.35526894651997        4.03922607287360
C           17.32372427587015       11.72989781259544        4.51833029625277
C           18.34939382949437       10.79636028257971        4.58133017526803
C           18.13362313546307        9.48988314059951        4.16669013542775
C           16.79139987032530        7.40718653956154        1.35526112936664
C           16.06363096018034        6.51276129469830        0.56547028791645
C           16.28312538359058        6.43533033419120       -0.80038951453252
C           17.22936210298483        7.25750770994833       -1.39773901930241
C           17.94690746083381        8.16121874784012       -0.62585505110310
C           17.73113322078767        8.23913631099654        0.74177743988798
C           15.28075817685390        1.91885875345331        6.03809929205203
C           16.61908933295271        1.71770950135805        6.37695129551015
C           16.99038530344894        1.56090183863003        7.70482548486314
C           16.03303160407207        1.59140481880321        8.70912013593750
C           14.69793354453427        1.79370584772475        8.38429000083466
C           14.32752846498181        1.97193417903881        7.06090148075172
C           16.16478701609826        2.21003536848429        3.28488520966340
C           16.48770543144991        3.38562898413608        2.60732374756330
C           17.59476283902578        3.44694864050414        1.77495854372487
C           18.39967732891494        2.32832364818673        1.61133576904661
C           18.08797836022726        1.14930291549280        2.27619246540252
C           16.97763385358100        1.08544977086912        3.10275728970331
C           13.93761892591658        0.57271849600361        3.88045934251811
C           13.47631602725202       -0.35197652913314        4.81828467724735
C           12.89921588605794       -1.54390727921958        4.40481627437062
C           12.77531420696874       -1.82911431296014        3.05258967775373
C           13.21787203126020       -0.90956917804228        2.11036932695505
C           13.78457677661776        0.28561421997430        2.51954361190515
H            6.06503596418905        8.25448701040770        2.58160965193104
H            5.93922593964681        9.13890575250417        0.28802969003907
H            8.00985687346847        9.59037856796292       -0.98930607001906
H           10.21780582562732        9.16205287204827        0.04905340133599
H           10.34907505764004        8.28702197798120        2.35001129689651
H            7.99793135201828        5.30576759471897        6.08502116433518
H            7.74644470953036        2.87032388503105        5.82202518395926
H            7.72995772272406        1.86733207899393        3.55174410972212
H            8.00493715796662        3.32027720976954        1.56762993658137
H            8.26635904350599        5.74826082760905        1.83023233895851
H            5.63704483129874        6.31365908630559        4.51110947809204
H            3.67249037701397        7.00217763122831        5.81807816423252
H            3.77016252096297        9.01799373183158        7.25051337900207
H            5.85185042934172       10.35642691549615        7.35447635048739
H            7.82604544704409        9.66947751264242        6.04829468804672
H           13.06722977872811        6.59766535885197        7.45768513084577
H           15.37807326657326        5.78948771082950        7.69405764298599
H           17.27641754877210        7.35500181377839        7.38841168266600
H           16.83292202453676        9.72208835368817        6.81833996487915
H           14.52930446129320       10.52457199358374        6.55283186724101
H           13.17433551040590        8.72963329727582        9.52040635209324
H           12.23025963717646        8.69164526479102       11.78590706466269
H            9.81177127282464        9.08248726313576       12.14030481257141
H            8.33979272287823        9.52828929910404       10.19773792464782
H            9.28025899848213        9.56424753500161        7.92131407034086
H           11.99426281346118       11.72550119840739        8.34676268798175
H           12.23023514039451       14.05440223478265        7.57927078824605
H           12.40587054820117       14.55774363738099        5.16338039531898
H           12.32534492289430       12.71683911701039        3.50916488779614
H           12.07111546092066       10.38384857775728        4.27165114799410
H           13.45459551784721        4.29788163700412        8.44004720136232
H           14.90754325524007        4.97307044763203       10.31268192190540
H           13.90628889222565        5.83710937668681       12.40802146556198
H           11.44637505228456        6.01280883978652       12.61532728887290
H            9.99304892666050        5.34439815742229       10.74819061068310
H            8.18854582562972        2.71750029693409        8.76765992529954
H            5.87690143944972        3.43956007365111        9.21226596012918
H            5.28761520440246        5.84222069971351        9.15647659651336
H            7.03168246971159        7.52881248558600        8.65482088561987
H            9.34390086640253        6.81079659428658        8.19695656942224
H           10.41023136816177        2.37967912512270        5.88757800933744
H           10.55604756036493       -0.07735875053619        5.76211946974092
H           10.96187785841596       -1.40041543424426        7.81685484025139
H           11.20213675964251       -0.25120934627961        9.99496522617014
H           11.04245076462992        2.20328849670500       10.12663973964216
H           13.79691677177607        3.25212085270723        0.94682163596088
H           15.84271215347090        3.03384125806658       -0.40670489391969
H           15.67731458545997        2.78595448883562       -2.86849121929549
H           13.45559426495020        2.74807988636903       -3.95610538997102
H           11.40684960079183        2.94539372600845       -2.60220361689411
H           10.89212891234841        0.68284211424024       -1.20386435868594
H           10.23557600833200       -1.60208062148827       -0.56366292328246
H            9.60454609624706       -2.10804224032564        1.77499761221295
H            9.68049786452671       -0.32001832801687        3.48689602464241
H           10.32906765876071        1.97190415945577        2.84694599383964
H           10.30052068802017        5.84269030388351       -0.42972105465099
H            8.45254322651380        6.81894282950714       -1.73229139108746
H            6.73101406683067        5.34593818598000       -2.73705500057620
H            6.87341760289292        2.89550197048837       -2.42350974711359
H            8.71058952324752        1.91610681475293       -1.11925157929857
H           19.32265571019810        6.84187720715152        2.40631888276028
H           20.99003442708704        5.32687645989464        3.39239260259809
H           20.41239539384738        3.94840673156338        5.36457331218555
H           18.14126718366808        4.09465310986740        6.34742921515144
H           16.46399646598580        5.59827597751962        5.34973792130008
H           14.87662123328811        9.75639443233798        3.26291701473004
H           15.26743424402646       12.07774761957356        3.99274135697837
H           17.49585910114697       12.74827842413613        4.84599382308083
H           19.32421182307303       11.08493809347088        4.95674568423302
H           18.93813624077962        8.76605308140675        4.22865288342887
H           15.31361978246645        5.87862545309917        1.02774641156974
H           15.71086977465938        5.73448340813341       -1.39812095665099
H           17.40144714097796        7.19914065051918       -2.46600242924835
H           18.67885601330973        8.81129488335488       -1.09079831264140
H           18.28760818701867        8.95576728966702        1.33527153717263
H           17.37538876115559        1.67945403579771        5.60153596092272
H           18.03389690926249        1.40657607408631        7.95377787612711
H           16.32589965664931        1.45944357498313        9.74398072865604
H           13.94242267718383        1.81375221023564        9.16191884178710
H           13.28716672962923        2.15438221354474        6.81131512484703
H           15.86039209510276        4.26095019214853        2.73585942324262
H           17.82906316868436        4.37084719921970        1.25820076742364
H           19.26654707130697        2.37370634061413        0.96277093500093
H           18.71127256080489        0.27226869513598        2.14664762117734
H           16.73123538891638        0.15594640271718        3.60347395437926
H           13.57983715291287       -0.15041724529678        5.87830094288201
H           12.55539784166316       -2.25700037914845        5.14526597148703
H           12.33437417855435       -2.76555102985511        2.73211142586350
H           13.11881956053066       -1.12298256149520        1.05220971333160
H           14.12739819352838        0.99872848361830        1.77724432298097
