606
 energy: -1064.840031852979 gnorm: 0.000592865442 xtb: 6.5.1 (579679a)
Au          -2.46612766926470       19.95872088107332        1.41258455197945
Au          -4.60876670351287       19.08894294973321       -0.54905542386238
Au          -2.68549368414796       17.31823458309339        0.47723636504110
Au          -4.72374495378116       18.35588653598801        2.13595303994911
Au          -2.73454144036958       18.86001110962734        4.70105307511102
Au          -0.58703832853810       20.44084083015970        3.45525240261361
Au          -2.25104199831556       22.62690050272285        2.53440453134215
Au          -0.17152669276582       21.71731017199137        0.97232506370969
Au          -0.46187479989223       17.45776178855850        2.55595491151779
Au           2.44191049830915       20.22704632269889        1.44728263758582
Au           3.15566109670469       18.87349506589165        3.91336176672643
Au           3.49066369023302       16.26857867391709        2.72288617215594
Au           0.36582511660361       14.79324939157684        1.43100123633947
Au           1.31927206465891       13.44750316479886       -1.11228246297871
Au          -0.58365880183413       12.90471921825264       -3.36410642221895
Au          -0.54525049090253       15.86515687924466       -2.21965739006322
Au           2.16513996773071       18.05321438710310       -2.70269423326686
Au          -2.52903832164946       14.85181128122059       -4.36506972218663
Au          -4.76004835725771       12.57062151666596       -2.16002608580328
Au          -6.63185506759904       14.44729653980565       -3.43267514296658
Au          -4.94314970033608       16.52848065899416       -4.87162469880227
Au          -5.13440162487575       19.14641709603703       -3.41855113364110
Au          -6.77794722426092       17.66323013843438       -1.69350734719244
Au          -7.24732939229240       18.39400450981421       -5.69412348045728
Au          -7.10079302851462       21.17691462442215       -4.60108767121762
Au          -6.83402235032260       20.47890169435811       -1.63289190746328
Au          -2.82312346360348       13.26910442820149       -0.05895253374437
Au          -7.15886137697009       24.12942580883647       -1.15138124423205
Au          -4.76640374918855       25.61525694821886        0.91614555865528
Au           2.45660496535140       16.61327339532363       -0.05826864003948
S            1.05385373501411       22.74358792966740       -0.92914114746109
S           -3.66514583441835       24.71260617152155        2.85993480273505
S           -1.45280392940437       15.24225695250974       -0.04789490964389
S            3.39799726070926       14.56246704145517       -0.88508380602233
S           -8.23498665371662       15.73218037888704       -2.28670880159604
S           -5.89590164755312       26.11662194265109       -1.17338584650978
S           -8.44931447717249       22.19286655654627       -0.89959691549202
S           -8.83654383407100       19.58861690657313       -4.42413321765879
S           -5.77582834848297       17.11362724593817       -7.01690179771992
S           -3.19154972701861       19.85472724520590       -4.86220905132561
S           -4.87344814579315       13.20808300138771       -4.45869918850782
S           -0.87384545918833       13.66342587164015       -5.60484233077334
S            0.90249022050498       16.54598310546102       -4.01145600707320
S            3.87909957500406       18.92328866814860       -1.26016674527606
S            4.94193101791729       18.12261236458568        2.52201691881575
S            2.04888971595254       14.41330122683825        3.06549193130889
S           -0.60528647923317       12.02923538335610       -1.14947455372979
S           -4.64836383744704       11.70436946906507        0.04265941280836
S           -5.41374454015214       18.22688739705328        4.56946720591653
S           -1.63103217530210       16.75642133558051        4.51184163412594
C           -7.17130950016121       27.34535417356661       -0.76042389122737
H           -7.32507003379864       27.36826973100152        0.31691658731225
H           -6.76209493910450       28.30634296348122       -1.07564794126420
C           -8.45173504993981       27.03348392739470       -1.46906007708673
C           -9.47018550408444       26.35001808388892       -0.80477232033423
H           -9.34419072655361       26.08328459459724        0.23981365067295
C          -10.64850323637982       26.02966035414224       -1.46299508796406
H          -11.43468283534547       25.50271827787597       -0.93355585276496
C          -10.82454233977372       26.39786003458311       -2.79002785303426
H          -11.74905157629520       26.15890027121870       -3.30319745211566
C           -9.81418068555376       27.07935504340458       -3.45728419608553
H           -9.94799600243338       27.36679538427498       -4.49408652723308
C           -8.63062739569438       27.39134010653470       -2.80320698365500
H           -7.84219464767709       27.91746597730728       -3.33044660210270
C           -9.80592470852951       22.28155665475888       -2.09961992530552
H          -10.25926523850674       23.26979804719534       -2.01791764789608
H           -9.39491800563584       22.17477814448734       -3.10540248632862
C          -10.83789700538748       21.21735321373000       -1.85768410201907
C          -10.48621704801829       19.89112663264420       -1.62575177048744
H           -9.44267431511186       19.60773989298754       -1.58960546436696
C          -11.45782853438672       18.92638228640321       -1.41549656662758
H          -11.16285648034964       17.90341343886028       -1.20989605302292
C          -12.80162413652322       19.27093147996718       -1.45273119728923
H          -13.56292186281030       18.51764097571895       -1.28600506099338
C          -13.16426122652629       20.58890693386332       -1.69583640601790
H          -14.21144884860153       20.86848911768794       -1.72207244683811
C          -12.18875715962582       21.55741378752156       -1.89058068390534
H          -12.48083896336415       22.58727473103133       -2.06766100598705
C          -10.13653693603695       20.06340784892983       -5.60663778455851
H          -10.54987189581341       21.01370983074935       -5.27035611483103
H           -9.71507316647331       20.19259619805341       -6.60180574835692
C          -11.17601964092858       18.98544070307362       -5.58229267880851
C          -12.33732248025505       19.15001777307589       -4.83299050130335
H          -12.50702915025777       20.07949424931811       -4.30085558103691
C          -13.27810878078924       18.13258099685840       -4.76432958532456
H          -14.17579656687708       18.26994005892556       -4.17196036940114
C          -13.06803486861176       16.94264430207143       -5.44607745541149
H          -13.79797768330774       16.14354055969919       -5.38646338324262
C          -11.91495532842791       16.77575660881246       -6.20137039469348
H          -11.74576663101247       15.84620357197162       -6.73267164878479
C          -10.97171752658740       17.78924660494223       -6.26584670515404
H          -10.06774795170637       17.65064996823056       -6.84976573861115
C           -6.77877580093616       15.71823087937838       -7.58693291612052
H           -6.08970356843480       15.06297725190264       -8.12397415282851
H           -7.18902036078754       15.16130764755781       -6.74480222142106
C           -7.87237751930269       16.17596227768255       -8.50715624716623
C           -9.15080895738624       15.63570052501331       -8.40337271276006
H           -9.36041550412342       14.88983982371006       -7.64483548694095
C          -10.15606152426573       16.03807640052043       -9.27267328226338
H          -11.14556250683393       15.60296166154728       -9.18871613928837
C           -9.89606103623317       16.99482055467988      -10.24303320140316
H          -10.68302227778686       17.31380494674740      -10.91670088481921
C           -8.62384631825171       17.54139329780635      -10.34808258250959
H           -8.41466722148561       18.28946354110084      -11.10451520587530
C           -7.61672803170811       17.13077215004684       -9.48900512660313
H           -6.62323805131736       17.55815733382559       -9.57006810866487
C           -5.53689172279400       11.70148191657734       -5.25011826635348
H           -4.67698643547555       11.06141207873186       -5.44844021782792
H           -6.19390892281161       11.19326078900554       -4.54718554300164
C           -6.26169029353170       12.03107233992337       -6.51556834946075
C           -5.55614226882191       12.34244763934223       -7.67624671027627
H           -4.47201367169797       12.36097067820628       -7.65824069412355
C           -6.23223634595267       12.61938647400329       -8.85582760280424
H           -5.67359396179972       12.84988535707502       -9.75584307740697
C           -7.62073136786203       12.58794611831209       -8.88677391832426
H           -8.14918174791923       12.79855482985712       -9.80920105906670
C           -8.32909990120999       12.28789219191613       -7.73147416759775
H           -9.41248596727830       12.25428232418459       -7.75305226838971
C           -7.65387195128451       12.01709630040496       -6.54966274983463
H           -8.21066632106332       11.77416007508688       -5.65095996300973
C           -1.72544982106973       12.28137935128417       -6.41716020083085
H           -2.74210990732285       12.20240678030967       -6.03659756224805
H           -1.75876279964118       12.53293355949860       -7.47740470992649
C           -0.96269407460844       11.01644788487169       -6.18131510709417
C            0.07842821883558       10.64617780064817       -7.02811688862456
H            0.30634571979929       11.25175566131083       -7.89852844309473
C            0.82208699278262        9.50383552701186       -6.76509138358259
H            1.62526989420732        9.21863890508601       -7.43509204801869
C            0.53926091876842        8.72807715186085       -5.64897238803694
H            1.12486686769480        7.84014339188242       -5.44083059904842
C           -0.50000303979714        9.09025603873705       -4.80266595654425
H           -0.73129117999460        8.48011509615143       -3.93678750369445
C           -1.24895747160150       10.22748584718695       -5.06898532207039
H           -2.07133918283636       10.50047339173942       -4.41686523091933
C           -3.52311347850685       19.46572780422340       -6.60818748313559
H           -3.31068199005412       18.40518547344043       -6.74062154371305
H           -4.58262124456953       19.63779998399724       -6.79786217105680
C           -2.68209228452715       20.29849768289014       -7.51702655630130
C           -3.07761772781608       21.59627799150305       -7.84154041246334
H           -4.01458661357151       21.98444025054777       -7.45739088741178
C           -2.29369095205604       22.37929007468895       -8.67595369074710
H           -2.60864725749493       23.38715604630864       -8.92156828009070
C           -1.11468227103172       21.86964986254351       -9.20358518394998
H           -0.50495238919116       22.47894363083306       -9.86058092248758
C           -0.71860786740677       20.57564901454332       -8.88768172254999
H            0.19734615554949       20.16937081573104       -9.30201978404056
C           -1.49620649293218       19.79539954065170       -8.04331627498788
H           -1.18224225981699       18.78678170595072       -7.79862045086905
C           -0.00261295400900       17.38454986504525       -5.34294126200034
H           -0.94733629453187       16.85696829166245       -5.47718108532769
H           -0.21577407213799       18.41764451691012       -5.07098427762071
C            0.82847332938882       17.30546769049874       -6.58787709036743
C            0.92656039907614       16.10629386427217       -7.29179964062170
H            0.39767554244157       15.22929585412251       -6.93378295420655
C            1.69622426180969       16.02646015331212       -8.44151803546911
H            1.76321113682789       15.08695381625059       -8.97903911550738
C            2.37761813783320       17.14381540964125       -8.90623141493505
H            2.97497893770129       17.08172693218696       -9.80872233312075
C            2.29445637298594       18.33905352530680       -8.20492380711211
H            2.82622576889045       19.21690908975933       -8.55567813294440
C            1.53084149572452       18.41561536280680       -7.04788635413361
H            1.48420684069370       19.34738720732241       -6.49465190856941
C            5.37342021992021       19.22687307254669       -2.24874361434371
H            5.37933539202961       20.27280871542049       -2.55618576411031
H            6.20666553298974       19.05646772647080       -1.56609333301183
C            5.44971925655517       18.31228427148725       -3.42861541790235
C            6.28170664564314       17.19618852853036       -3.40508974672420
H            6.90725164960102       17.00913324590717       -2.53888914077936
C            6.32010221081273       16.32505898408658       -4.48685585496400
H            6.97516940946138       15.46155069731500       -4.45872770400678
C            5.52052268833243       16.55669354687945       -5.59702899154098
H            5.54171097993501       15.87165631844595       -6.43665623976037
C            4.69970750840544       17.67558617959163       -5.63258642259721
H            4.08750176992554       17.87239610442454       -6.50416732926166
C            4.66561367176300       18.54957961717141       -4.55719447252817
H            4.04642001811537       19.43831632262869       -4.60603226281383
C            6.36269246345131       17.76353946231523        3.60022621704946
H            6.20130692491390       16.82248935275856        4.12373256431322
H            7.21195189130491       17.65078684308650        2.92561422045363
C            6.58309901048713       18.88760130784554        4.56297967867594
C            5.88139868257898       18.92093798895846        5.76603381546553
H            5.21673839761102       18.10324076039949        6.02059079268126
C            6.04029125267949       19.98161719290246        6.64478979706469
H            5.48443320645472       19.99867397867928        7.57567888222570
C            6.91158383603054       21.01686078277970        6.33348952789873
H            7.03535478366959       21.84812449166319        7.01798060149753
C            7.61844215835555       20.98757455398912        5.13940032281150
H            8.29667626624957       21.79609469205972        4.89034608807252
C            7.45128196938824       19.93157867566533        4.25400208716646
H            8.00414560962797       19.91597017561422        3.32075735882208
C            3.08690372220945       13.03167507894950        2.50830065525155
H            2.71573516119963       12.14580226248662        3.02391260198500
H            2.98452180317659       12.88654792875946        1.43444609240889
C            4.50680215728836       13.32616307331168        2.87563492309985
C            5.39850258805836       13.79436390558794        1.91105995515219
H            5.07822814339815       13.86745459517734        0.87658624138066
C            6.68550513932290       14.16869815535245        2.26885703418714
H            7.36962398475504       14.53533271572523        1.51173643190881
C            7.09342041505322       14.08129934327046        3.59318421056750
H            8.09609468511386       14.38235307382605        3.87453069876331
C            6.21507408961841       13.60032871183676        4.55574290314068
H            6.53155976847946       13.52510090610055        5.59014600204569
C            4.92926271495378       13.22261118954906        4.19954740318278
H            4.24317465811435       12.85494497437595        4.95479093258819
C            0.02019167957512       10.31677235801621       -1.20749839508641
H           -0.78851112572315        9.69337921690450       -0.82595068967175
H            0.22236691276442       10.04558311143676       -2.24209730249668
C            2.50509164673372       10.38589324904382       -0.92722120615162
H            2.59216827162065       10.59101317693695       -1.98837566335799
C            1.24611162523328       10.18613303073841       -0.36360340946030
C            1.14440097263067        9.90968211013204        0.99748839175054
H            0.16757534915109        9.75995540562667        1.44503552044555
C            2.28635807212166        9.81956203180431        1.77978280997259
H            2.19892302550420        9.59000714514494        2.83581711629667
C            3.53889548667498       10.02069609335484        1.21258128424803
H            4.42992839424933        9.95443705472960        1.82612219289395
C            3.64544388534541       10.30734197133430       -0.14141124390929
H            4.62008181335310       10.46625824800512       -0.58876175634148
C           -4.03665194732248       10.01922520927970       -0.23230153871357
H           -2.94899781744904        9.99885764542743       -0.17636778253949
H           -4.43704254939173        9.43502716523363        0.59838645902130
C           -4.51879980259806        9.46653079250834       -1.54031785247461
C           -3.61789991475762        9.02048800885189       -2.50258214745773
H           -2.55387049336165        9.04587198946492       -2.29533561957991
C           -4.07301174172681        8.53280854857613       -3.72065431085427
H           -3.36232002310608        8.18147615752145       -4.46001972464631
C           -5.43303827655415        8.49084900108052       -3.99119500107778
H           -5.78718373427504        8.11250572642495       -4.94311302660241
C           -6.33991563549842        8.92992283027761       -3.03368597263790
H           -7.40440378613908        8.89194421861750       -3.23571934025794
C           -5.88617072343545        9.41072679455855       -1.81556869367837
H           -6.59477525569060        9.75157100734624       -1.06918089937088
C           -6.26342705886866       16.67306731396415        4.99866679171514
H           -6.31642440924698       16.03751740802784        4.11483916374273
H           -5.64725250552423       16.18450100593768        5.75378084876858
C           -7.62487240233183       16.97590279471659        5.53283827637931
C           -7.77811131405632       17.48011974298628        6.82567119813037
H           -6.90611702412752       17.61044716805580        7.45693088700251
C           -9.03637800756941       17.81294817183690        7.30311880663768
H           -9.14500893194346       18.20282502013354        8.30887139482974
C          -10.15638082155831       17.64480989165659        6.49811612913612
H          -11.14036782961334       17.89777971973841        6.87551077890062
C          -10.01119883312884       17.14457635219302        5.21165118542047
H          -10.88128761403367       17.00650487954688        4.57987767168280
C           -8.75165929940291       16.81594114112940        4.73092023858557
H           -8.64059305886008       16.42116661894502        3.72747004414829
C           -2.93266446018553       15.60250589510720        4.03221073966851
H           -3.64272620021497       15.58685585025712        4.86145209322666
H           -3.46590893093243       15.96645087163020        3.15078316717091
C           -2.44618676142653       14.20103764222005        3.79028519584590
C           -1.17986996210750       13.76851799338639        4.16636676254531
H           -0.49318478344848       14.45816449086118        4.64131797382144
C           -0.79051866332127       12.45259716322942        3.94955925248258
H            0.20624182510494       12.13763109693027        4.23687277111716
C           -1.67400167975040       11.54936170330203        3.38031147527446
H           -1.37708796774850       10.51901528900515        3.22094215511161
C           -2.94859486654888       11.96949747681218        3.02290591951477
H           -3.65433709945257       11.26621977335297        2.59793097918230
C           -3.33006435832882       13.29032697412253        3.21298902391244
H           -4.32492216141934       13.61618452418959        2.92484466767405
C           -9.40969212272796       16.29650013329499       -3.54604339492404
H           -9.90396494727750       17.18397126808431       -3.15222616203611
H           -8.88183930479361       16.57371032105474       -4.45858559166846
C          -10.38573243949321       15.19495111996276       -3.80105309028917
C          -10.12827921259272       14.23962175182230       -4.78106378363248
H           -9.22063043848168       14.30975274651315       -5.37216843595187
C          -11.02689170923134       13.20779250378322       -5.00739195725476
H          -10.82448683485397       12.47318269705456       -5.77874045178101
C          -12.18651558005146       13.11603073336615       -4.24975389821106
H          -12.88927520890915       12.31029873909102       -4.42831030054211
C          -12.44249178499627       14.05792517191732       -3.26227741095482
H          -13.34522315587108       13.98812079372290       -2.66581262512809
C          -11.54528177803640       15.09087696885376       -3.03672771833067
H          -11.74871245245559       15.82680854231632       -2.26632476874055
S            1.32806611442070       19.92167651905038        4.98193762222837
C            0.72804019340747       18.76593792039816        6.24654323742956
H            0.48299339200008       19.37444236851352        7.11691690115281
H           -0.18020047923753       18.27973126452661        5.89530652220969
C            1.76222463751545       17.74553876710372        6.59091282246064
C            2.77314734882936       18.03976137088428        7.50364137779160
H            2.80213696776315       19.01473295346683        7.97856307876610
C            3.73935555541749       17.09086380801448        7.80851291986227
H            4.51584589889949       17.32534330251645        8.52815015688965
C            3.70846220116534       15.84148177324616        7.20178481817404
H            4.46608719915191       15.10307769387899        7.43815569490683
C            2.70051634771663       15.54094982925717        6.29653223824521
H            2.66025489465997       14.56718210760794        5.82159405289265
C            1.73385432114803       16.48724563312808        5.99272079558757
H            0.94272076281605       16.24399365307334        5.29225040063230
C            3.75601644354438       13.62380250845339       -3.41546797836382
C            2.81054096268319       13.65181416492926       -4.43756723681508
H            2.26879631632098       14.56883109226626       -4.64542566135871
C            2.56235743888027       12.51558066614127       -5.19439537097188
H            1.82558428196963       12.55110964821852       -5.98898359822396
C            3.25411023264055       11.34120951856193       -4.93551574834823
H            3.05455859714199       10.45217366892671       -5.52278744633214
C            4.20439607099303       11.30838557659405       -3.92298864332950
H            4.75613589852579       10.39608468794297       -3.72535636172045
C            4.45490564908634       12.44411176364609       -3.16655836134267
H            5.19329322746585       12.41638350645758       -2.37246738908401
C            4.00107506451031       14.83442543059041       -2.57220414220030
H            3.52707948687842       15.71130463783928       -3.01029182860669
H            5.06900906546143       15.02955557286843       -2.47073480592740
Au          -2.46598367541255       21.10629672148827       -1.41281292418983
Au          -4.60907704925853       21.97634811825692        0.54803413338410
Au          -2.68517869804809       23.74706525048323       -0.47794804944274
Au          -4.72317011379410       22.70938629825075       -2.13627907279377
Au          -2.73377568396853       22.20524474079394       -4.70168223650185
Au          -0.58666241131198       20.62426832313771       -3.45556940773211
Au          -2.25057327157081       18.43826493716774       -2.53513368143810
Au          -0.17117396721005       19.34812512798069       -0.97267396797575
Au          -0.46151365452600       23.60766463788165       -2.55597609307329
Au           2.44229445687718       20.83818608821694       -1.44666077189017
Au           3.15690931599628       22.19193694254628       -3.91373889381526
Au           3.49114932625129       24.79687270870564       -2.72251707004193
Au           0.36604382839961       26.27190846000447       -1.43115468521344
Au           1.31903813415468       27.61765470422853        1.11232924039002
Au          -0.58403712986974       28.16115258266371        3.36421535076013
Au          -0.54545097185435       25.19971119989773        2.21951137319664
Au           2.16452035869087       23.01197479926212        2.70291893187269
Au          -2.53024707319395       26.21332597837964        4.36481257653044
Au          -4.75919103368394       28.49401596594679        2.15999811786630
Au          -6.63333075102511       26.61879817809994        3.43181548092338
Au          -4.94443181433035       24.53819361023391        4.87028153897135
Au          -5.13513619059457       21.91880822566699        3.41751222595802
Au          -6.77784007853894       23.40222709087620        1.69268063677508
Au          -7.24841538551449       22.67132275132417        5.69279571119489
Au          -7.10149241558645       19.88825307173810        4.59997330439621
Au          -6.83433247153041       20.58619489254708        1.63173259325866
Au          -2.82259868950156       27.79606456930920        0.05731531521088
Au          -7.15887838577875       16.93575850819420        1.14958615499624
Au          -4.76602065297721       15.44864722076201       -0.91688107817795
Au           2.45658244678018       24.45179138359386        0.05852433527779
S            1.05392162456236       18.32152754321533        0.92939011297027
S           -3.66462464277285       16.35240474900702       -2.86014313770337
S           -1.45264929969488       25.82258037596364        0.04773064054783
S            3.39784860505342       26.50281265119733        0.88569989281754
S           -8.23550929112845       25.33328938086230        2.28534043664243
S           -5.89600632196747       14.94858390527407        1.17209760359420
S           -8.44935778790677       18.87227827577657        0.89834712775955
S           -8.83728882846139       21.47655180755675        4.42267275983712
S           -5.77713455924576       23.95161587728253        7.01582121599308
S           -3.19233418860266       21.21043186344609        4.86167196019697
S           -4.87461778179577       27.85666884170818        4.45831868658841
S           -0.87491947776418       27.40167748423391        5.60466476325778
S            0.90191709030629       24.51922810714183        4.01178833326458
S            3.87873369885964       22.14201215503255        1.26083780689890
S            4.94226579910367       22.94266894956575       -2.52119423639328
S            2.04944682802451       26.65201157057105       -3.06531190877589
S           -0.60533124822681       29.03597926210908        1.14929268177153
S           -4.64836356219371       29.36040927041224       -0.04345311586047
S           -5.41306854490130       22.83836407701467       -4.57040306568972
S           -1.63037539841479       24.30886102394564       -4.51220613557603
C           -7.17143489022582       13.71988187614191        0.75907894530479
H           -7.32507099637285       13.69683048777497       -0.31828093044528
H           -6.76232376279494       12.75890794833758        1.07448774809568
C           -8.45196231228163       14.03177802811448        1.46753430764722
C           -9.47030682586309       14.71522865854729        0.80306432886330
H           -9.34412222736142       14.98195552433272       -0.24150209501567
C          -10.64875269966210       15.03555692966786        1.46107593996086
H          -11.43484821505573       15.56248522830720        0.93149886088240
C          -10.82503306884715       14.66734435454467        2.78807376921837
H          -11.74963997382496       14.90629326251825        3.30107497697437
C           -9.81479330730498       13.98584381462248        3.45550658236561
H           -9.94880577650117       13.69838090219990        4.49227887669876
C           -8.63111360724297       13.67387901168583        2.80164153322714
H           -7.84278990112934       13.14772832879811        3.32901981042867
C           -9.80623428991576       18.78358643048174        2.09805003737670
H          -10.25950685665864       17.79532716809099        2.01621163945434
H           -9.39545158445830       18.89034712942252        3.10392554165502
C          -10.83818824459853       19.84775168777989        1.85590089097876
C          -10.48650562779023       21.17398323083273        1.62401617993128
H           -9.44296579200154       21.45739766883418        1.58804724131590
C          -11.45810536289030       22.13869882023172        1.41358798814778
H          -11.16312227800838       23.16167327894924        1.20803190910705
C          -12.80189647927422       21.79410887850913        1.45059438334451
H          -13.56318756875076       22.54737666995243        1.28373995272133
C          -13.16453710669033       20.47612201384551        1.69363721520826
H          -14.21171993146915       20.19650674528071        1.71968930411038
C          -12.18904038231806       19.50764590429870        1.88855798594138
H          -12.48111763952283       18.47777388322544        2.06558379256373
C          -10.13747403983179       21.00170133737543        5.60493037753392
H          -10.55072623210675       20.05138615104535        5.26858575166213