607
 energy: -1068.529441636980 gnorm: 0.000620688572 xtb: 6.5.1 (579679a)
Au          11.46064711717006        9.84769324463350       27.84315448352343
Au           8.71732408940960       10.59713413428108       28.75954859633424
Au          10.63347658012562        7.63936276182599       31.08053477145026
Au           6.91177105371747        8.41755989944915       28.08206473395149
Au           8.03486987744989        8.72572401438264       31.91045801588663
Au           5.50726145383330        6.78317969898283       31.79710835519317
Au          15.91637595381944        6.94100427231801       27.74485758257162
Au          13.29189154391768        7.19838751632305       26.03469205346042
Au          12.90527635170713        7.50773741853995       29.17765822650646
Au           9.58269511800834        7.40988740306637       26.98824931538316
Au           8.20115195081998        5.78404738264888       30.77179121082522
Au           4.92159344124501        5.36772751704484       29.07687156330270
Au           8.88557631303051        2.88818302072018       32.44833875699312
Au           6.03371107289785        3.26505934068380       31.25736908552844
Au           3.43215966227857        2.52665116119033       29.63409386599370
Au          10.29601303640284        7.03198966065515       24.08062300254706
Au          11.34908934709336        4.19155093084672       28.82980276695876
Au           8.40536362768047        4.50108373865153       27.21396465077270
Au          11.70002169174419        2.31399951763809       30.94030916243109
Au           9.34315244484055        2.31699290769769       29.47897852165160
Au           5.84828900235551        2.87177378397155       27.56114433855981
Au          16.85687960390200        3.60740547805148       26.32794366663277
Au          14.59498505858238        3.75215872743451       24.36503831453527
Au          12.09531784272223        4.39467201851021       22.89472807374751
Au           9.98637549721879        4.11645196190629       20.89396533196822
Au          14.29785221026937        4.36118516881864       28.08781384103383
Au          10.78211570235972        4.35560048264345       25.72963031737401
Au           8.41654952760196        3.66793017975255       24.46191782913098
Au          15.80245886602806        0.66110283754411       23.20366542149596
Au          13.17547660799224        0.84827070170295       21.58075058039688
Au          10.59420215266670        1.54324684077517       19.38831498268441
Au          14.36069120395712        1.35354569136213       27.10857682893910
Au          12.15844087032965        1.68256289363822       25.39322041224879
Au           9.38070809729713        1.49527552579904       22.50737157036337
Au          14.61536852682974        1.73912654853813       30.09795331595993
Au          11.82730451560669        1.54490851249212       28.20019723825217
Au           9.13227123000272        1.89917019889224       26.49781495335264
Au           5.94989936163860        2.33735170879751       24.07885681791296
Au          13.46899802982237       -1.91614188251658       20.41370764269926
Au          13.20412297942612       -1.59829551514159       23.62882655051108
Au          10.55829959089886       -0.97220671930582       20.92853641065537
Au          12.58432302560400       -0.77653191976349       26.61982268695376
Au           9.75985627882024       -0.34215535831202       24.99794690459585
Au          11.89144986908041       -1.17807270992973       29.87089269852855
Au           9.76613102012259       -0.67386895452730       27.83773427264686
Au           7.34903472927176       -0.36174747168232       26.55518315881331
Au          11.56135097838671       -0.23766297737492       32.83033771817677
Au           9.19983901050909       -0.58720377723669       30.57534678191941
Au           6.45767919002081       -0.45712746517730       29.57984936867196
Au           4.28390227828322        0.25930746193109       27.64731695878911
Au          13.42394548461680       -4.39741550845693       21.91280670251711
Au          13.27057368265618       -4.45146954549338       24.94595293770775
Au          10.60385919492213       -4.02428516677739       23.16139259811831
Au          12.61649389532839       -4.18006341897740       28.69916852235656
Au           9.79044778895592       -3.28824513089382       25.94756496906841
Au          11.91347161750172       -3.84915423045699       31.68789825820447
Au           9.90295661640592       -3.04543120755704       29.47060185666864
Au           7.11792887081048       -3.20565255971352       27.44385499598516
Au          11.56026702693883       -6.97710188858799       25.26056852329129
Au          10.80224892329441       -6.49039460571482       28.01249253350217
C           12.68567348027235       10.15732757984319       24.54218469247500
H           12.07730088073862        9.42405554998578       24.01488545633909
H           12.10845402409383       11.06957913239574       24.67883658869512
C           11.16976260107092       12.26898512103459       30.23151087690888
H           10.29321110141759       12.89147013146927       30.06093013104865
H           11.47865664801752       12.37271627870768       31.27155703997360
C            7.03751060738072       11.12268271334936       25.96417049438461
H            7.32361447975303       10.20264618284740       25.45464205475330
H            6.10692440036665       11.48430939361745       25.52103857900238
C           10.77143069048911       10.11257960740808       33.44489820379955
H           10.60170243885898       10.71321122162526       32.55271143751401
H           10.27040339430647       10.58202674505129       34.29153841840237
C            5.07169271355644       10.24091985045501       31.51583871319058
H            4.03625168591331       10.18695822259949       31.18127177300825
H            5.10597835997816       10.12430421456956       32.59761972697839
C            3.77434254349086        4.31258991395514       33.59809931225127
H            3.55222360121069        4.98835997793699       34.42400991845748
H            3.03466267675465        4.45196904565045       32.81013085298690
C            1.75597439051889        5.55704488337573       30.21632674453051
H            0.87042724267695        4.96711541283247       30.45138578466843
H            2.36184634634632        5.67184701805813       31.11422193165955
C            1.83477157715267       -0.38065061489018       29.83890627511165
H            1.78874268469295       -1.26623071903580       29.20576037328010
H            1.54344202697324       -0.65072259611020       30.85387947458901
C            4.49144662916507       -1.42467057282769       24.67125402892813
H            4.31424900129583       -1.18363322671293       23.62276062557086
H            5.25600866411646       -2.20022208835782       24.73507937191091
C            8.57914847020419        5.65329286670293       34.22557394785218
H            8.99248298485914        6.62441603677939       34.49971425202296
H            7.51363641051432        5.75715362142082       34.02934561411820
C            7.20833968935552        0.10466551328476       33.45303321661346
H            6.97423947193936        0.83579379502675       34.22517982208297
H            6.44217720165572        0.14879429991344       32.67854505995906
C            4.70120036646462       -3.36583760819191       29.70922704540616
H            4.05786867071325       -2.53691310765426       29.42018843086146
H            4.60128980656526       -4.16960160431735       28.98175595212487
C            7.30127515839047       -5.39587451442023       25.09644467863392
H            7.44754090206057       -5.69601439693167       24.05879009798903
H            8.05163398290902       -5.89126652749446       25.70887620515726
C           12.02909037193986        2.61083210595105       34.40234779389773
H           10.98933956156970        2.80550822946395       34.14162642632445
H           12.05063408702776        1.92420725380933       35.24816984944867
C           11.29385184204465       -2.89918364623808       34.75763198009150
H           10.63469957534213       -2.40259605022367       35.46993474625498
H           11.19516044122496       -3.97743033832615       34.87454525888863
C           14.89520534458960       -5.12240141131235       31.08610650351021
H           14.88907391748290       -4.24323613792962       31.72899012719989
H           15.19646483709133       -5.98220008048532       31.68622471431705
C            8.10721304062160       -6.01174260693140       30.06663276608437
H            7.46624911675658       -5.26195928209205       30.53259520595037
H            7.48582077483244       -6.80538927147991       29.65048097721468
C           14.08045291011787       -7.17282943228697       27.56457637756472
H           14.05671454067096       -6.10630143311812       27.34415862124981
H           14.22811459374552       -7.28479020906590       28.64125159415514
C           10.70058206989975       -7.21661494362966       22.03328951153052
H           10.07818737899076       -6.88600105835866       21.20167768082817
H           11.74020030738945       -6.97009651949333       21.81636807328448
C           14.62557618853035        4.87000590714737       31.38013443631170
H           14.28523719261098        5.81231515290873       30.95432685619723
H           13.76211860772874        4.31124861621067       31.73590047913351
C           14.89637320389435       -1.08914622643413       31.62452274283396
H           14.23021731526524       -0.72661582997117       32.40572480216503
H           14.90171087738804       -2.17807520098860       31.64849830797274
C           14.69981478037197       -7.08054545666104       23.30508581764842
H           14.51397501366889       -7.49720765222253       24.29578931585513
H           13.81658097576126       -7.26974321178517       22.69581012297602
C           12.08328271315934       -4.59365773192544       18.78823092554732
H           11.12353978077630       -5.05860370326388       18.56058836363444
H           12.33499014679212       -3.88949344588507       17.99598027251345
C           15.15577756332501        0.44359463250246       18.74183998960845
H           14.64961192953897        1.40499403651164       18.67651654827067
H           16.21790292278759        0.58677893817825       18.54150901811980
C            8.20881988020520       -1.07238057492546       18.66505693779076
H            7.60230411732036       -0.24251301401789       19.02184762369817
H            7.94185538298906       -1.28239222201616       17.62853018284704
C           12.11824654391031        4.34456113009406       18.18260815279313
H           11.17839034481448        4.30560137243366       17.63546835706868
H           12.34374667873967        5.38049882476329       18.43614301230311
C            6.88059601495186        5.25160385164663       21.59153048685317
H            6.80099805678677        4.40564536127780       20.91063962449259
H            6.11361246991770        5.15464192965820       22.35926734103635
C           16.20373750506138       -2.05961235429111       25.17164275990632
H           16.06962096496614       -1.22130442648327       25.85364384487346
H           15.64874269958657       -2.92065359220920       25.54187455151098
C           15.74539045713249        3.27054590438489       21.19158702802241
H           16.21573038934048        2.50487157130705       20.57676965827944
H           14.66366513710097        3.17493148640768       21.10055169256719
C           17.48836931696317        0.90621930352575       28.20388375025646
H           17.16152685815172        1.65395733948608       28.92551567143656
H           17.11329595903963       -0.06772552617099       28.51759818471554
C           16.90628132291711        6.53974718377952       24.55301131083890
H           16.17005736087926        5.88914303898418       24.08048090484153
H           16.46985733735270        7.52854694287545       24.68074969806234
C           15.34311179497955        9.85008700962839       29.09223403127771
H           14.45063573481824       10.18630585352977       28.56926502244911
H           15.45692316408506       10.43909615635319       30.00290573152715
C           11.90704939562305        7.32233194502742       21.22950585971437
H           12.83466963825009        7.39058829666811       20.66254726185496
H           11.26047887742241        6.58376294991139       20.75735363768257
C            7.00878724641741        7.08673044010032       24.71087292620732
H            7.06706026903998        6.80525816558265       23.66197348635187
H            7.07053445735326        6.18111744461055       25.31312001834635
C            3.23224816264857        3.57420361170300       25.52048718860149
H            3.04354525266847        2.72224672573479       24.86737424598511
H            2.88002624176313        3.32824762855261       26.52099704645822
C            6.24282348005886        1.46739886432379       20.98287224950802
H            6.51322334087304        2.49168255225211       20.73305005343644
H            6.57551554570551        0.81133468447140       20.18083966309054
C           13.96940955158164       10.43392957282854       23.82257522659638
C           14.72226512856392        9.38940350121343       23.28748160090353
H           14.34883662458902        8.37258450494823       23.35027266561976
C           15.93783049175009        9.64500756121375       22.67241883408377
H           16.51809239354095        8.82646849977384       22.26295193165043
C           16.41640092270254       10.94605144984739       22.58329325644042
H           17.36681365727782       11.14335209688282       22.10101108407748
C           15.67082461458067       11.99116139889534       23.11157898031954
H           16.03728995320294       13.00933625540422       23.04417890610556
C           14.45614307580770       11.73555719880616       23.73188412827245
H           13.87879747793523       12.55584975414025       24.14503770832613
C           12.28380985719573       12.64599349111948       29.30917472039194
C           12.01330102310424       12.96281809935504       27.97844326477175
H           10.98724545283160       12.98096639549201       27.62978532103246
C           13.04542732917796       13.27561832210841       27.10698372768600
H           12.82154959559950       13.51769124952600       26.07427626766057
C           14.35856619547899       13.28478482214955       27.55617634168742
H           15.16565780521229       13.52806694030787       26.87493322413469
C           14.63317079981431       12.98883329385763       28.88421844793751
H           15.65590277936268       13.00832675947634       29.24331570084482
C           13.60235060796771       12.66281942710143       29.75594741604274
H           13.82394538393391       12.42584643219752       30.79116248969204
C            8.11321553680767       12.15247990069540       25.79654447584329
C            8.06950129355814       13.35412135065816       26.50038479603287
H            7.27092681616152       13.52504812645171       27.21349155188925
C            9.03335331580400       14.32810286336251       26.29032034455473
H            8.98806653562322       15.26032660387831       26.84215847342616
C           10.04496194297382       14.11692435586644       25.36164318612391
H           10.78532906016279       14.88729320293262       25.17918703776394
C           10.10070625673317       12.91731988737849       24.66540368637219
H           10.88490527909863       12.75269621236521       23.93492941200281
C            9.14689444927664       11.93425870248620       24.88879381294570
H            9.19630067411289       10.99767614414922       24.34285843080555
C           12.23679187713256        9.94669005450731       33.71292722133823
C           12.71902887473705        9.95848876771402       35.01937149356782
H           12.03228634724624       10.10702132290947       35.84590286414154
C           14.07376678954910        9.78876533661479       35.27024586009971
H           14.43906423191864        9.81489363783429       36.29079858326158
C           14.95800677871920        9.58420499723862       34.21942742103751
H           16.01433570595763        9.44026659359021       34.41547477482016
C           14.48234609768851        9.56247045837330       32.91567916230342
H           15.16452760125842        9.39278000845128       32.09055493531862
C           13.13247645117510        9.75099676862872       32.66346778295174
H           12.76950499665421        9.74680331812814       31.64194244491749
C            5.71045095290878       11.52500073121813       31.08539518263170
C            6.87705391207794       11.97456629417583       31.70140465055657
H            7.30165526818030       11.41037573982827       32.52502109942652
C            7.49654015018602       13.13933146492617       31.27523789449155
H            8.40504600353702       13.47559892486221       31.76227728127843
C            6.94612747215261       13.87955045313057       30.23642788642491
H            7.42700182422372       14.79301296809008       29.90614595600598
C            5.77911099776272       13.44449347683093       29.62516128802815
H            5.34286953134698       14.01787604405068       28.81514775250166
C            5.17101019458063       12.26686537551384       30.03796124705070
H            4.27137479142717       11.92173534044885       29.54011052351443
C            3.82680788610230        2.88819594767140       34.05256416967902
C            4.46748010445043        2.55240746741298       35.24425382802482
H            4.86686453110481        3.33630816736195       35.87808938023360
C            4.59823443485533        1.22355337750778       35.61852141908161
H            5.09918631010403        0.97131487451673       36.54631637805751
C            4.09017384825596        0.21640651649035       34.80741046903253
H            4.20368968905768       -0.82215869521961       35.09574268013045
C            3.43504355640441        0.54675473423697       33.63005470934333
H            3.02337339704827       -0.22901495817943       32.99573405992861
C            3.30481585683899        1.87517129101802       33.25548795891385
H            2.78787787140739        2.12765807001731       32.33596975807092
C            1.38839746215739        6.88403799405724       29.62642351235668
C            2.27674596947105        7.95468994723120       29.68764156380666
H            3.21754504017202        7.84050314116912       30.21439689170157
C            1.97085263162338        9.16091498155249       29.07580654185020
H            2.67464413632585        9.98456748768510       29.12414466807223
C            0.76901341668416        9.31057054716011       28.39669881281946
H            0.52944785005225       10.25223294771177       27.91643662757272
C           -0.12392223951108        8.24921195460256       28.33484333000185
H           -1.06629799618972        8.36273906947834       27.81080646250249
C            0.18581311677769        7.03989996376926       28.94089091356267
H           -0.51165609711466        6.21099811724181       28.88175551922691
C            0.96855327346065        0.71590644651699       29.30693021971984
C            0.87836825354963        0.94817173687914       27.93535737501228
H            1.39354222585837        0.29035951320580       27.24476823182885
C            0.13889128097388        2.01357100568122       27.44628641828871
H            0.08347110305015        2.18492139635595       26.37711323414280
C           -0.52981111222640        2.85666442697497       28.32389892023222
H           -1.10688653105299        3.69145301933043       27.94307427761299
C           -0.45971466223264        2.62415785479149       29.69059278033793
H           -0.99132398815124        3.27093559606572       30.37966891979314
C            0.28938745112348        1.56360580092233       30.18147115307639
H            0.34442035400437        1.38992946195788       31.25059310877588
C            3.23214128483700       -1.83905953986195       25.35693504769422
C            2.00206365138401       -1.31958444885988       24.95851138087813
H            1.95498754589518       -0.63708941183443       24.11711434802550
C            0.84125357296838       -1.66867895448161       25.63306489395312
H           -0.11156692258897       -1.26489246652305       25.30986190306412
C            0.89700187648783       -2.53359055400625       26.71901072312119
H           -0.01062464806309       -2.80582781693136       27.24491497462435
C            2.11974788175680       -3.04975849653610       27.12616944246593
H            2.16906269999328       -3.73472464722981       27.96495423703617
C            3.28006649062751       -2.70335660963901       26.44911139555344
H            4.23243413457924       -3.11879738697587       26.75831716503933
C            8.83104508362683        4.63455623200582       35.28974213377317
C            9.94682448663762        4.73318876701567       36.11567015222145
H           10.61289258599307        5.58336592338825       36.02045969851572
C           10.21409830133156        3.74376216641701       37.05169591216296
H           11.09105399365072        3.82571412211967       37.68407550258726
C            9.36804929193050        2.64987886185603       37.17289114831529
H            9.58215154302435        1.87375575336321       37.89869492608901
C            8.24096536729676        2.55795336852474       36.36739747835546
H            7.56562189436053        1.71606604115092       36.47219064346454
C            7.97406142333979        3.54368856276631       35.42949715558203
H            7.08541373908855        3.48140012451287       34.81080262423733
C            7.32560568491045       -1.26896308651790       34.03161903950220
C            7.82284539570384       -1.44406231203799       35.32193512867827
H            8.10459539745482       -0.57817841169686       35.91156198956323
C            7.95620913752429       -2.71730934962773       35.85595708613634
H            8.33457121112076       -2.84178120281593       36.86450645430399
C            7.59698706780755       -3.82944258942645       35.10510005527222
H            7.69746418342031       -4.82441804786727       35.52340781145051
C            7.10652881863604       -3.66095040471687       33.81796670841013
H            6.80771931072999       -4.52288002014403       33.23245658502672
C            6.97868727666765       -2.38849502031257       33.28153406878725
H            6.59878430747816       -2.26788088342653       32.27380556440422
C            4.37366889649953       -3.85560253210271       31.08408139862808
C            3.87254786574242       -2.97986125097147       32.04338257664030
H            3.70727421408016       -1.94083941505461       31.77976893199754
C            3.58482132913195       -3.43202786273907       33.32224760402722
H            3.18612907023346       -2.74605273759447       34.06093617285085
C            3.80804080851243       -4.76011163741925       33.65848153284307
H            3.58764834967018       -5.11159745465703       34.65979699840172
C            4.31663957947020       -5.63680308359645       32.70906448788271
H            4.49307843188815       -6.67496047939849       32.96685687859582
C            4.59814878965917       -5.18701659860450       31.42721505668543
H            4.98808344729948       -5.87605650502949       30.68535576118187
C            5.91959828530015       -5.70910792166648       25.57575606256092
C            5.71914966933312       -6.19855994257969       26.86438168854468
H            6.57454972475485       -6.40994397851180       27.49528240803218
C            4.43484364149201       -6.42820425893097       27.33737217374660
H            4.29101411833835       -6.81481314552769       28.34027975352299
C            3.33938387861931       -6.17339885312853       26.52369324100790
H            2.33549625318133       -6.35359192562507       26.89063047205823
C            3.53304012672122       -5.68703145651517       25.23691489479616
H            2.67926285628614       -5.48331055773543       24.60052183837289
C            4.81590024979440       -5.45208103139281       24.76536165803058
H            4.96395593610161       -5.06230750260303       23.76397491582885
C           12.73027762156302        3.88745407417545       34.74701347131016
C           13.55030296504258        3.95399054002798       35.87104663280793
H           13.70110183661644        3.06988997210973       36.48166839967779
C           14.16636203252430        5.14833111611966       36.21789190083165
H           14.79867405583371        5.19217003865542       37.09751573317545
C           13.97560597038244        6.28258154437428       35.44186921649890
H           14.45816338538295        7.21383513372449       35.71355122885313
C           13.16951774690707        6.22040052038456       34.31377573114507
H           13.01624908926543        7.10151934444433       33.70132810671461
C           12.55300068662190        5.02849933305357       33.96750849269623
H           11.90757175408532        4.98911167809161       33.09774435123625
C           12.71095470226147       -2.45577963458879       34.93483147719524
C           13.76571823091363       -3.24773406335694       34.48819082493742
H           13.56394932792772       -4.23601566208231       34.08897299154484
C           15.07132467373108       -2.78335780453903       34.55200636805669
H           15.88345463618456       -3.40725171659419       34.19576238649948
C           15.33774685986346       -1.52119255103852       35.06795194507210
H           16.35635036135173       -1.15293367379306       35.10400340830898
C           14.29534114757844       -0.73608462883962       35.53971576600071
H           14.49705564293062        0.24584487332258       35.95297331159568
C           12.98895083468031       -1.20177118223590       35.47693285314444
H           12.17920036135204       -0.59075278619825       35.86034892163271
C           15.85260476167518       -4.91807289829536       29.95179889959968
C           15.86442469863889       -3.72266657375544       29.23568724319254
H           15.14311739518710       -2.94431300473886       29.45709860846059
C           16.81565617534961       -3.50105902853591       28.25204772610591
H           16.83170840149369       -2.55221671138222       27.72948040325850
C           17.75700170235256       -4.47777049993724       27.95850743978939
H           18.50567054579291       -4.30073671351656       27.19548541851748
C           17.73219022771605       -5.68332140985493       28.64602728922320
H           18.45689247489537       -6.45540120717597       28.41410001461401
C           16.78620955408037       -5.90237924742215       29.63798374883186
H           16.78543427222611       -6.83985158044907       30.18370560804982
C            9.09264993267534       -6.56981830536072       31.04125247473172
C            9.70743892723795       -7.79507136805760       30.78788989847874
H            9.43287348902092       -8.36061611358075       29.90444291398775
C           10.64984329827381       -8.30617328033167       31.66770832614873
H           11.12607224336434       -9.25641089905556       31.45462235443575
C           10.97166570914800       -7.60952923796397       32.82436563477349
H           11.70053378230923       -8.01203470888531       33.51817050777387
C           10.35006817529317       -6.39821540033737       33.09284155032189
H           10.57703947426412       -5.86361095680223       34.00797279875604
C            9.42542640933907       -5.87179028036258       32.19869920283961
H            8.94738613430142       -4.92399851710164       32.41631945923421
C           15.20671584466179       -7.82936555819766       26.82279303703699
C           15.28679587473877       -9.21660006764475       26.72668432586752
H           14.49702558852014       -9.82598305416489       27.15240093589956
C           16.36123521796782       -9.81275544127154       26.08396348834575
H           16.41239403202759      -10.89331440650247       26.01034324785737
C           17.37126821671860       -9.03063117590531       25.53961546439518
H           18.21206305902599       -9.49819733467778       25.04016795471524
C           17.29407228419934       -7.64801077315798       25.62569585915311
H           18.07303597850559       -7.03081876937628       25.19239397675883
C           16.21320767440275       -7.04957315102622       26.25765673784880
H           16.15267112053995       -5.96880236575733       26.31489999793104
C           10.52676699932404       -8.67920908664926       22.29514322629368
C           11.61521803448721       -9.47541979476693       22.63923408255466
H           12.60987270857855       -9.04533472203390       22.66784333172848
C           11.43800194190713      -10.81910362502281       22.93595826967619
H           12.29445041268153      -11.42899903855206       23.20094828450922
C           10.16850138164240      -11.37764499433722       22.89569371991718
H           10.02840467502054      -12.42666066456417       23.13004629694024
C            9.07731449466667      -10.58836865936149       22.55581785216173
H            8.08341219494243      -11.02067338605288       22.52516262557865
C            9.25394743687855       -9.24562626161498       22.26011531847253
H            8.39970056552463       -8.62706517343034       22.00601239518254
C           15.61562871919216        5.10593588938610       32.47642899789310
C           16.36736881656486        6.27750969539536       32.50370823966338
H           16.21716636535552        7.02970793433479       31.73552708454862
C           17.29543440289815        6.48734901958478       33.51253447455836
H           17.87143767407649        7.40590827248959       33.53203956525046
C           17.48755778383496        5.52455266057649       34.49422660680214