592
 energy: -1048.418127193681 gnorm: 0.000769820014 xtb: 6.5.1 (579679a)
Au          19.63307529018017       16.06396872290316       22.90944993433936
Au          18.77220215598811       18.05804224851363       24.92096580494962
Au          19.26713150417946       15.25482494946834       25.69341333049131
Au          21.29657850456701       16.42793088490559       27.40498785785857
Au          18.41642322944369       17.17088814831508       27.75204320194426
Au          18.99305438377898       19.03156962928002       22.09727397030927
Au          22.05875800654913       15.56050542383237       24.61101740085734
Au          20.67771152817061       19.16709048379643       27.02674157647349
Au          16.86805227523207       17.03824244264502       22.81114650710652
Au          17.85656252050395       21.00023707601870       20.16357078031142
Au          23.43466623499576       18.81366748969080       20.12118171133784
Au          14.85308263409509       15.14596805439138       23.67311349696063
Au          14.92096089481115       15.79323460212143       19.85684681153058
Au          19.25277425846295       20.82621732165348       29.04270950606767
Au          24.68162894343908       16.17602775393127       25.80540090822542
Au          19.96227626997833       16.42983179975410       31.78874602880993
Au          19.10461358774384       11.70766858462351       28.48219344083104
Au          16.53553207448001       16.19641247115543       29.85981607706093
Au          20.08764027323663       21.85714143891924       26.45792035231219
Au          16.46276435787593       16.17615417590323       25.79144906083112
Au          14.96633060851207       20.97460689921535       26.63126953657425
Au          17.65848321650700       15.28124324088500       20.77726992077926
Au          14.79030432667760       12.95638712355243       25.55978519326369
Au          22.87570502193729       18.30873245664796       25.12962584482271
Au          15.43773935296207       21.97945656231217       23.93126518558751
Au          20.77762182343647       20.08022535555853       24.23258059474285
Au          16.03130241282210       23.55863930178106       21.47107930138438
Au          20.48477409585858       13.25315472716583       24.08495787138558
Au          23.38798483813431       18.05065579120046       28.02902085450012
Au          17.31575700374770       18.12628714185882       19.95613582133720
Au          14.38465756882372       15.78818835796206       28.26320410150035
Au          21.73181109780187       18.00355368525779       22.40174369306576
Au          18.62410941022497       24.82295326980471       24.24078636023229
Au          19.37753792946209       14.49578230475766       28.42371670502142
Au          23.61839872450794       20.17743422303214       22.96010278682666
Au          17.74741485846684       19.99943302568872       26.84945935455475
Au          13.55484653788154       16.83971066500657       25.55756184694732
Au          17.68266588271207       14.12872228400184       23.47138872244035
Au          17.23682960762551       22.84399831054792       25.91159903791967
Au          21.83763037942032       13.60385125685636       26.68359429361692
Au          14.03627596989291       17.97140999772591       23.02175425970366
Au          15.85397688697535       18.89536158597626       24.97100167211812
Au          24.30431604707337       16.69427518817705       23.10384724813287
Au          20.13411209088112       16.97738485561599       20.24288936374081
Au          23.04161362940564       21.03459536473347       25.71202905704560
Au          16.18664775107061       19.79275080826952       22.09612946789265
Au          22.34655298782873       23.46828068871546       21.27033017512471
Au          18.13384189648305       21.05476212429657       23.97509079034136
Au          22.53592962734868       22.30987558233841       28.31919389875269
Au          19.37284183292899       19.20475158321987       18.01290620962768
Au          13.91909496377008       20.20341104772024       20.37774411147224
Au          19.09068766374475       12.47365075389963       21.12595072567152
Au          13.12195809123654       19.26703052948243       29.14683852322090
Au          21.17165304258612       18.42118792158557       29.71208725721280
Au          16.62182356428424       21.90936170190729       29.27362600426462
Au          22.13770170550847       15.37549404418259       21.55615729777633
Au          25.69980327179605       13.96705027012338       24.10362177504044
Au          15.66811393619188       18.35701485592237       27.98336501712264
Au          12.76461687533357       20.15658694994618       24.69276083253594
Au          18.43160536354179       18.33737028192589       30.49581888475689
Au          16.56355708628649       14.11895357611672       27.66566714451410
Au          20.96320642526858       21.04642102862966       21.58547202628818
Au          23.19308625214097       14.83738105417026       29.10546885046257
Au          25.52195426802434       19.49903958742154       26.52151498117444
Au          26.97908143576042       17.37609125314451       24.05864149786139
Au          18.88436196430274       22.96323444867814       22.00911890208815
Au          23.15026009474026       12.84430372598944       22.88006330750556
C           26.59993863588773       18.44097417526188       29.39136639157447
H           26.88534251910461       18.81206305882372       30.37686531477967
H           26.26547426253917       17.40713454938044       29.48324408341294
C           27.74334411107973       18.54417456669274       28.42814016813220
C           28.13711186836325       17.44198721660776       27.67367849333862
H           27.63307601105609       16.49254557710934       27.80994875214461
C           29.17017235676553       17.55254319723867       26.75291547799000
H           29.48184979496234       16.68103658410156       26.18816569877103
C           29.82115712928792       18.76550761470331       26.57541068239284
H           30.63471306482740       18.84850631806006       25.86427343528389
C           29.43497434630900       19.86990569870959       27.32536061939322
H           29.94596223938870       20.81753420983732       27.19827581421815
C           28.40473892683184       19.76017415398429       28.24664442940074
H           28.10626502848389       20.62348935647805       28.83090841148640
C           27.58192371058750       20.72990847014884       24.18921486974706
H           27.18489949306877       21.74309775871311       24.23717612297930
H           28.18363183027878       20.54322352917820       25.07789449289188
C           28.38524619716199       20.51725042849557       22.94517469707515
C           29.28846621579959       19.45805016131466       22.86846010653363
H           29.43385092510577       18.81351916125518       23.72845945343266
C           30.01052890489969       19.22874233421421       21.70757076376292
H           30.70281555925772       18.39581061342260       21.65951014402235
C           29.85147017307351       20.06899301337318       20.61360783533710
H           30.41462417626181       19.89125988581555       19.70485766094374
C           28.97013660180183       21.13790047353264       20.68893220522873
H           28.84434117813715       21.79985004412200       19.83987619733594
C           28.23397425918048       21.35652124797802       21.84478380239270
H           27.54038605405448       22.18832449821064       21.89038174721724
C           29.03335780635074       14.55105077154461       23.90378169630961
H           29.72849173945506       14.48781890708595       23.06510501627411
H           29.43637762697766       15.24281896806829       24.64165747861546
C           28.79876027140735       13.20193010796559       24.50557485587908
C           28.61482197191473       12.08701431790604       23.68767207637485
H           28.66947554837740       12.19664396795745       22.61012316277297
C           28.37351398623153       10.84084032627744       24.24628514434353
H           28.24422682417818        9.97749121647731       23.60367244185642
C           28.30092340498712       10.69670184847177       25.62640016354246
H           28.11467716290908        9.72193393795114       26.06191541235820
C           28.48817151910869       11.80160641388399       26.44607253115466
H           28.44612773423527       11.69156111987090       27.52371279961119
C           28.73851201319751       13.04766316062570       25.88838421193882
H           28.89956693659891       13.90665913033128       26.53067701544733
C           24.72651637240656       10.96877074768751       25.34439220704777
H           25.77749415415529       11.09815586902524       25.60245818551784
H           24.20829327744520       10.54255465072159       26.20289702361285
C           24.58201181809273       10.07921206857351       24.14968746655495
C           23.75555076619013        8.95931838898464       24.19568994233434
H           23.22759926926252        8.71402699468459       25.10976817577228
C           23.61674651898487        8.13882587085849       23.08408845668906
H           22.96476066347307        7.27435570876877       23.13430410808977
C           24.30434538231678        8.42698923931113       21.91451086821868
H           24.19119938379677        7.78995063986940       21.04515566478453
C           25.14866501533293        9.52802132551701       21.86673064172189
H           25.70965803402196        9.74262320897569       20.96441995571199
C           25.28477352558768       10.34924063842363       22.97615060093348
H           25.95628024396894       11.19912691690791       22.94102036893223
C           22.94832518218353       12.53784540465084       19.42828398800403
H           23.13307830960345       11.46519805994913       19.49578046481458
H           22.34792272945645       12.74242189821421       18.54117797564873
C           24.23240386030655       13.30228962538079       19.39229403903021
C           24.37067356146878       14.41662377965201       18.56988210586182
H           23.54235553818586       14.72846338390871       17.94333204769250
C           25.56520782615084       15.12020907339162       18.53803295507518
H           25.66125273295464       15.98697420601061       17.89461893219472
C           26.63055555136768       14.72406433895895       19.33527303546126
H           27.56230233200280       15.27742247582588       19.31355521109563
C           26.49575869188889       13.62295613087833       20.16824800189019
H           27.32127705864679       13.31423307214442       20.79992070439566
C           25.30452236710184       12.91446374572452       20.19192250903344
H           25.20670967704514       12.04319417899186       20.82745107401949
C           26.17812780569294       13.82129923566213       28.04678944565256
H           26.00308741326840       13.35057763952398       27.07960263849377
H           27.23274581012625       14.08289080125015       28.13067601914348
C           25.76347643498733       12.91336781062298       29.15874114985236
C           24.68861332958898       12.04339186039479       28.98117735868919
H           24.18107184773703       12.00470324265998       28.02574441625239
C           24.26898973066424       11.21744064958952       30.01257174499463
H           23.42816206910291       10.55176004582503       29.85173262784186
C           24.92665050645780       11.24685370789751       31.23478817879541
H           24.60544011493941       10.59860384872155       32.04179176470402
C           26.00339801070536       12.10523710459019       31.41687036114306
H           26.52940971150596       12.12231356965662       32.36474486640670
C           26.41548874308504       12.94165458278624       30.38859576153179
H           27.25246769092780       13.61456852376666       30.54041272189182
C           21.48574857728526       12.91836532943700       31.22704662647920
H           21.50226765161856       12.10083856019702       30.50734021818189
H           22.46833358583940       12.99723394540124       31.69214854378686
C           20.43695810502883       12.70066590000125       32.27007505056583
C           20.45044686922214       13.45557245338904       33.44222143398955
H           21.21786141774907       14.20578890652584       33.58726256546031
C           19.50245020476856       13.24193890087357       34.43073851360065
H           19.53680183673592       13.82472054535916       35.34447963183497
C           18.52445573047361       12.27012728000330       34.25749772068816
H           17.78977340901394       12.09260958582097       35.03439759227015
C           18.49991799842552       11.51912658645061       33.09085657400406
H           17.74501902849244       10.75271265413120       32.95589850002210
C           19.45056618476825       11.73390665704100       32.10292408994974
H           19.43660941309086       11.13022775896524       31.20125647930141
C           23.25649584715705       17.06196916746196       32.09123263873665
H           23.39378644856255       16.59759272606136       31.11349720279784
H           24.03995180067465       17.81385150434157       32.21444323834568
C           23.36214218854783       16.02671722610557       33.17237284046593
C           22.84808819114627       16.26812854841691       34.44428477577956
H           22.35370329128764       17.21175998784048       34.64782402673060
C           22.95502229561881       15.30929942065733       35.44045913401452
H           22.54695498200364       15.50791986202043       36.42508855922866
C           23.57978913607650       14.09759952350255       35.17664884951567
H           23.65877244196674       13.34471172698091       35.95229425717257
C           24.10234755101405       13.85414652097815       33.91432584499630
H           24.59221911519052       12.91086435882122       33.70282421748666
C           23.99719459473363       14.81404406682543       32.91746933159377
H           24.41792212507265       14.62006118105741       31.93588266469289
C           17.14326573576297       15.58260549663187       33.25486152003103
H           17.64199668565290       14.92878140177149       33.97124200582913
H           17.36775287302918       16.61494082124380       33.51773315058669
C           15.66455489947561       15.35792786482872       33.28894701881799
C           15.13924243398527       14.20484544512548       33.86724012120767
H           15.80854453056363       13.43782215030766       34.24171204547734
C           13.76633556049424       14.03942078457979       33.98155303177894
H           13.36882407567140       13.13944020947363       34.43702867728834
C           12.90458182015266       15.02613764188883       33.52253801328903
H           11.83245602655242       14.90574915877523       33.62792751451308
C           13.42051131530176       16.16686271661208       32.92262966479673
H           12.75404571815815       16.93199929321863       32.54218119439756
C           14.79198499170305       16.32685195686663       32.79729818967737
H           15.18834299668118       17.21873920189318       32.32545989565183
C           25.40308091987701       23.32907966981335       27.06471767757079
H           25.83325512105274       22.32960561557179       26.99932520290851
H           25.92634080122935       23.98434949218847       26.36743889321859
C           25.47142067093968       23.85810766807858       28.46294269230933
C           25.42318459808407       25.23043071680258       28.69694271668443
H           25.39101540350733       25.91833295336726       27.85887597065167
C           25.41145012668951       25.71926437510950       29.99477943804932
H           25.37150951929125       26.78893917530859       30.16720357729102
C           25.44530233899083       24.84210773467838       31.07170357254035
H           25.43363576951870       25.22552096740769       32.08542367300676
C           25.49745149764772       23.47292778659862       30.84480224015540
H           25.52772280369539       22.78309588661244       31.68074827644634
C           25.50907466176126       22.98304385555178       29.54695515626999
H           25.55523369273935       21.91230435788670       29.37597588787573
C           21.45928633117198       22.35534548793679       31.52689373191696
H           20.81762572042483       21.90899875139057       32.28545815496277
H           22.47671907839881       22.42628727585631       31.91191981117122
C           20.94730415492267       23.69135735355926       31.09478676022065
C           19.58089907158929       23.95849505786252       31.07971215014442
H           18.88142665625763       23.20747843350647       31.43151009447794
C           19.10988415192496       25.17956514807979       30.62048232836644
H           18.04342180608386       25.37251773150239       30.60277627497966
C           19.99834429775522       26.14795784011357       30.17275283878900
H           19.62816005387128       27.09974068799262       29.80925270096250
C           21.36295306692977       25.89081101843687       30.18955092728693
H           22.06361062994512       26.64194988366852       29.84227111619845
C           21.83399591952612       24.66822329414478       30.64535995497469
H           22.90045989375793       24.47642638603677       30.66787491881949
C           15.64301364455242       24.88592609073009       28.17468897375393
H           14.84436768541053       24.30073900527812       27.72169272488402
H           15.39069703547495       25.09643815577474       29.21331652985397
C           15.87522841393061       26.15161461128756       27.41227829225951
C           15.56231529564529       26.22620327744765       26.05823020171118
H           15.13036058616667       25.36691289302098       25.55500132555761
C           15.79200144119923       27.39713256925636       25.35172497970556
H           15.54614981443211       27.44200075611828       24.29709225774382
C           16.34383820501126       28.49939578910267       25.98770837710411
H           16.52625182439686       29.41187111334371       25.43212105484827
C           16.66787611934916       28.42801180226868       27.33625186712253
H           17.09974412123665       29.28656718150683       27.83798232263251
C           16.43771220851196       27.25779106788804       28.04502629862053
H           16.69324938772830       27.20246761161035       29.09773947235071
C           15.90926075896447       20.17317334370422       32.08543188600844
H           15.70717399698245       21.24259323943333       32.13502967490756
H           14.98223379884781       19.63579015683272       32.28759757832270
C           16.96912198645115       19.78663885091641       33.07406138517732
C           18.28619098795404       20.22170207578822       32.92042794621884
H           18.53597896426820       20.90038758668534       32.11449303080163
C           19.27589269455548       19.80151338100971       33.79652523160263
H           20.30119739962355       20.11947841187116       33.64474614768345
C           18.95827381363205       18.96287205809000       34.85578769064554
H           19.73295731758239       18.62682309315727       35.53513731064875
C           17.64255088386884       18.56444833364822       35.04472088445085
H           17.38149547580879       17.92886048658412       35.88328663548303
C           16.65391721338763       18.96882778434927       34.15538577078676
H           15.63031084765708       18.64533550748554       34.30835225854116
C           12.57665568476641       22.74672035103000       28.93257740919271
H           12.33464501987810       22.89954992089700       29.98498230147243
H           12.97797062470392       23.67367419575576       28.52349518419753
C           11.36872041855277       22.31362020111564       28.16796655827931
C           11.27521641570152       22.54974825948013       26.79776057588754
H           12.08790225748395       23.05216595093655       26.28380536958180
C           10.13602218351648       22.17661775280646       26.09887121850238
H           10.05879179072910       22.38280237854340       25.03782564207438
C            9.08068157994690       21.56068817649872       26.75945221118881
H            8.18423946436491       21.28736195601909       26.21514765122758
C            9.17305524466856       21.31203147084626       28.12215240881173
H            8.34773192783801       20.84139329376777       28.64404374087612
C           10.31226322972278       21.68405645126208       28.82195299165672
H           10.37201086564253       21.50932155567627       29.89049848839442
C           11.18363980942438       16.53882759837872       29.27538875604989
H           11.00580944612599       16.94738584927812       28.28301867225661
H           11.16373217338025       15.45178672789063       29.21615137519760
C           10.18413828835564       17.03814123506706       30.27016049077615
C            9.75191279004891       18.36060933057313       30.22704696819997
H           10.12035927270137       19.01545171600923       29.44515591104444
C            8.86315867047901       18.84321126319362       31.17468747753833
H            8.53283249266085       19.87515138992931       31.13059096410283
C            8.39971149294702       18.00668565258081       32.18141910893864
H            7.70688839139338       18.38343570945244       32.92507370471045
C            8.82851502818342       16.68758082881743       32.23358803229183
H            8.47085650674882       16.03075603515277       33.01867796678597
C            9.71776547240661       16.20529030912951       31.28425872828261
H           10.04853607446688       15.17315201056952       31.32983762610045
C           11.58943945550145       13.56352560091335       26.94063438805763
H           11.62942025408314       13.26317088327288       27.98843912642726
H           10.80699202582327       14.31424443552602       26.81846885070947
C           11.33426410802230       12.38438100955973       26.05528503688964
C           11.12101259275418       11.12296182680383       26.60339833112335
H           11.15604089084419       10.99039300778109       27.67879702517702
C           10.85181890097290       10.03680436662596       25.78274836404896
H           10.67990158982638        9.06066426063160       26.22199805227719
C           10.79815352594257       10.19952125857601       24.40551926155151
H           10.57842947046239        9.35374725880461       23.76447207334936
C           11.02937469904508       11.45188492299391       23.85054354892566
H           10.99289653974024       11.58235926698523       22.77481756876528
C           11.29879071759931       12.53679254767749       24.66992001675619
H           11.48090310015431       13.51407758282612       24.23819452916974
C           15.95497329581593       11.25401267434481       22.97620543679960
H           15.14009746636498       11.84387843959515       22.55548928038366
H           16.76814205626832       11.21911098944121       22.25317507574050
C           15.52369644626812        9.87338952714265       23.34955509247597
C           14.24776849397897        9.63885994655989       23.85257981625369
H           13.54670075604437       10.46212318495878       23.94246849737667
C           13.87236660841220        8.36068790931844       24.23744612526649
H           12.87757425833813        8.18732088693868       24.63248037663724
C           14.76772233483383        7.30624374361776       24.11949778631027
H           14.47286598845819        6.30722783935339       24.41987809392027
C           16.04237694364717        7.53502973109910       23.61890764422396
H           16.74623178168949        6.71550750972165       23.52719315718167
C           16.42278289133456        8.81402243662389       23.24171514837611
H           17.42378290496890        8.99765519294773       22.86547402014806
C           12.02929180836695       22.94151696775221       23.00666390710230
H           11.03927284754545       22.56663894011167       22.74742499575675
H           12.03581850702417       23.24532836978599       24.05149762179747
C           12.40515735399072       24.09613990617553       22.13364062506522
C           13.32110035747573       25.04560105798808       22.58297979120769
H           13.76352628020963       24.94356830013898       23.56778013828085
C           13.65260520013958       26.13321168468543       21.78733920761060
H           14.35722743169843       26.86973814206912       22.15537150588585
C           13.08012363478322       26.28032362404072       20.53164711881125
H           13.34203246060727       27.12908701416541       19.91063668135515
C           12.16161859960762       25.34236245730624       20.08083521283550
H           11.69873909512623       25.45867968514182       19.10743484892727
C           11.82704227248075       24.25469994196713       20.87679779827490
H           11.09688244471175       23.53366451663317       20.52641045815190
C           10.34651121692171       18.55620925687415       26.22331868254340
H            9.87099172716871       18.59834463162761       27.20294065382656
H           10.00010991582861       19.41135309667148       25.64463673396363
C            9.98751610602723       17.28648819565009       25.51785127099827
C            9.21138729419966       16.32079154176196       26.15413983642660
H            8.88270121195197       16.47821259411010       27.17552596628296
C            8.82770130341727       15.16968357993281       25.47797395086185
H            8.21226369235842       14.43136657507217       25.97934612812852
C            9.21539789666463       14.97274912124482       24.15988337902900
H            8.90375517349186       14.08155433210132       23.62799963426954
C            9.99585565010795       15.92835731163889       23.52300041221835
H           10.29256445610536       15.78589002079842       22.49056220559250
C           10.37951816368250       17.07565936307812       24.19795367407106
H           10.97184841268258       17.82902543928164       23.69105016447260
C           14.13590930408307       23.06065734142525       18.61659905588263
H           13.14169135929697       23.06456423329244       19.06166224768873
H           14.50761906076777       24.08308653192191       18.58725509297458
C           14.09415293130314       22.46729843897524       17.24397734495594
C           14.62140313744049       23.16326089568362       16.15708576671826
H           15.07112518227643       24.13877352228391       16.30837092861832
C           14.56854439209255       22.61937902403894       14.88142103868023
H           14.98365057305206       23.17035654196814       14.04505342471454
C           13.99049336866338       21.37470698505047       14.67624325367125
H           13.95475170553559       20.94807148681325       13.68063956497672
C           13.46436695237571       20.67420164198293       15.75355192550643
H           13.01304082993200       19.70003120901393       15.60350486125779
C           13.51621389107937       21.21894183950739       17.02642832301498
H           13.10197419602655       20.66845100451682       17.86316913521629
C           11.35990199974820       18.06515324081089       20.60615402833389
H           10.98562895214129       17.05222543673437       20.45981329241583
H           10.99516758434630       18.44587488545038       21.55909395199604
C           10.94941400205025       18.96330152178114       19.48394647872333
C           10.69041035396909       20.31137908718214       19.72918771137166
H           10.74502548253595       20.69428637929221       20.74261092900636
C           10.34281861333935       21.15844065214703       18.68656288406847
H           10.13584194566891       22.20375295909268       18.88681957361582
C           10.25439760743049       20.66885954406395       17.39072261170223
H            9.98492876067563       21.33154283626861       16.57658390583574
C           10.51498353828120       19.32770716529604       17.14048982818397
H           10.44489750012066       18.94042501641250       16.13030770339110
C           10.86487641923032       18.47988719767224       18.18068330265201
H           11.07241325986010       17.43464866757915       17.97959467187634
C           16.80986841173675       16.36043433165943       17.13964746364173
H           17.38662029533530       17.10269067857658       16.58414906458830
H           17.52399193194198       15.79130224010277       17.73558986538545
C           16.13543820654460       15.44247798736376       16.16119268038108
C           16.93717772439272       14.54074535453433       15.45930417495771
H           18.00731355274499       14.52237044121894       15.63863402029466
C           16.37660592393822       13.68091635276567       14.52809763341887
H           17.00863516337465       12.98167683484223       13.99189409480539
C           15.01026372757930       13.71819713319825       14.28040450226410
H           14.57075710790493       13.04565163333043       13.55261038455661
C           14.21250576740491       14.62507946793336       14.96200998144697
H           13.14778525274702       14.66850228112267       14.76099218675828
C           14.77133269394629       15.48380873680466       15.89902421699342
H           14.14405294843050       16.19134272240078       16.42965522187300
C           12.49191928646712       14.12603797640355       21.26381787059710
H           12.09652258426696       13.47251405485752       22.03922817817088
H           12.09440084276961       15.13053379760662       21.40330858228408
C           12.17642857887892       13.59992235660398       19.90028165393282
C           12.01704288317005       14.47165352202037       18.82637090361910
H           12.06070416157176       15.54195204144065       18.99132110064199
C           11.78964652888970       13.98061218515340       17.54972860497987
H           11.65687879207263       14.67082167554823       16.72442217836893