679
 energy: -2000.309247628896 gnorm: 0.000634713986 xtb: 6.5.1 (579679a)
Au          18.78364191437871        7.50522765619991        7.52486432969446
Au          21.15641192490475        6.21890187409988        6.34093157013697
Au          19.58718845647938        7.86552246296836        4.58480900177003
Au          18.64972742706751        5.15926748102932        9.36325283887278
Au          21.24045664814594        7.50970310921218        9.11307933194575
Au          17.20512057456055        6.44112116611714        5.22922614592245
Au          15.76038826471768        7.28568925001043       10.37169560259083
Au          21.79849747611300        4.68765723375766        9.69014311935860
Au          22.49042123378706        4.75758372842802        4.30740880675013
Au          19.78789112716795        4.03742640094165        4.07699083135240
Au          16.17411859939503        8.75088492159865        7.12811355753071
Au          16.30691102204727       11.77381726169420        7.60205133058140
Au          21.13298617755369       10.66568095812817        9.18467725214760
Au          22.43562937014425        7.82343090987889        4.15542605168264
Au          23.59284142915264        9.21613671736849        9.13140605202565
Au          16.71233260044859        9.93418320042989       11.39204915950204
Au          13.65825591028405        9.14839800037111        5.65456922467838
Au          23.27700965741889        4.60405235406612        7.30532294585904
Au          20.68370025963345        6.21795113823388        2.44267630895402
Au          23.82030486362722        7.53627644547503        6.71453948562157
Au          15.79043036972098        3.92619254749068        5.86318793304611
Au          15.85734906089292       10.88061939650516        4.97792607691885
Au          21.28834967771480        9.07135508807198        6.70460120321178
Au          20.39254493121786        8.32115348706521       13.82735133040086
Au          18.93879185072088        4.47534891895645        6.66922456162816
Au          15.52216445203673        8.33393468158778        3.77056183560257
Au          22.24633725779479       11.99001228888660       11.44776469188748
Au          11.37655701819453        8.71332306554616        7.31368243361340
Au          17.64197432999085        5.67513951472941       12.00015942555518
Au          22.07918579291812        8.98888536511745       11.48613119205197
Au          17.70651712408761        7.01270631099594        2.53016452866008
Au          17.13809084081462        4.21322049785395        3.25985919148660
Au          13.75773056494618        7.40959177086534        8.29337286079007
Au          12.66821756355491       11.29889339106829        7.28262707071061
Au          15.61123928111766       12.50976142399395       10.20017792360749
Au          17.94744804061977        2.20629130921012        5.15417270997719
Au          18.59546407923677        7.82528918947126       10.52185421562799
Au          14.01886826649466        8.67686051170567       12.07433359654932
Au          18.63320368116247       10.17651565912719        6.12947785912077
Au          21.56177098594777        2.74819233583584        6.21774597770039
Au          22.07391909240862        1.00086637806236        8.56863684470794
Au          26.00340784208794        8.14414566305075       10.37202997797631
Au          19.96247476212043        2.67024781957141        8.74313873522192
Au          24.09733799884302        6.27660723061545        9.34124927838243
Au          14.35410513872756        4.64904105627414        3.16442161071086
Au          16.23678535950393        5.90569567749095        7.87602952770434
Au          16.99129321243328        2.89964007664684       12.39654494448018
Au          18.23586680391082       10.15078565318620        9.02497796513135
Au          17.20819687766071        2.84640949820154        8.25472465580540
Au          20.74835887889011        6.34611213295431       11.78658484724021
Au          25.13255659887476        5.50973054641894        5.03534510331264
Au          14.32460229950550        6.33419235103324        5.57565666412189
Au          14.63030922882312        9.89761613457960        9.28075811518625
Au          19.45619695342392       10.25045143108635       11.67345698749072
Au          19.87779028093329        3.71021364706335       11.54545201101624
Au          15.73765360459765        4.38228770217870       10.27974910051607
Au          15.85342489400169        0.91385931088247        6.61319333624171
Au          15.73796163941669       10.89809266773137        2.03259194063144
Au          17.75894625946389       12.86506151614835        5.48626015102974
Au          20.87609607674744        3.52882344445137        1.54742417659814
Au          18.08770607742285        9.85321273410626        3.31494637082008
Au          24.19036469852442        6.91401116182994       12.14715348047017
Au          21.87078629628757       11.80540348150437        6.57604964265458
Au          19.37862636406120       12.46112408462675        7.86729081098455
Au          20.37261080244927       14.11821139489586        5.61334864897055
Au          20.70218703170114       10.55565272794397        4.16500806459707
Au          22.61232835533201        9.86619656358667        2.20877947197460
Cl          20.30279438671914        1.04829231295072        4.69763987460364
Cl          13.54971641042159        4.73786629309472        8.93320928910649
Cl          19.12282294408068        7.16747817022333        0.45784773944667
Cl          24.17097760535119       10.42146602536776        6.71928026894242
F           18.94573393346088       17.07521851716433       14.13188363829589
F           20.83302402823825       18.08788041811285       13.86188880733897
F           20.78316784439684       15.96901590359595       14.27407908822062
F           22.92372581475828       17.71139916974602        9.22379245898679
F           21.53048713367167       17.28155927345277        7.63304357980341
F           21.27948363534528       19.04848699341229        8.84233586025325
F            7.74122448812150        9.64348816684927       12.25728418368881
F            8.32252667868303        9.06498644083012       14.25253173000985
F            9.39680384745100        8.29995279820300       12.54726378737836
F            9.16549456430017       14.74875688441503       14.18792234245866
F           11.04094985763554       14.57842614370552       15.23868776293860
F            9.30123632870936       13.52797474663521       15.95911003819208
F           14.88315896524558       13.88844962604256       12.81174150706257
F           14.34947282552779       12.54501746344034       14.40760633016562
F           14.26105925344975       14.67180138400694       14.72193677582465
F           17.65061338245754       15.61197941302483       18.03831538738440
F           19.71079387153650       15.10384263883267       17.65439351090498
F           18.38342518859150       13.64161838006585       18.51573406956859
F           30.27774807613913       11.35996930576886       12.29801193295060
F           30.60487456766908        9.42832572767468       11.40744351743597
F           28.99634424048519        9.70647122887464       12.81845979450620
F           29.57405338467328        9.82262706772764        6.72059632493152
F           29.66386156176363       11.97126855329026        6.67253461646373
F           27.88247221436129       10.95050480679744        6.01072432990991
F           29.49816459086463        3.27617298688487        6.72483928120960
F           28.50315127618707        2.87088979537415        4.86175481590509
F           30.56887894396887        3.49011226766672        4.86502152585924
F           28.96168092234250        9.32581942858180        3.16187599229391
F           30.31625391686940        7.79112188582442        2.48011881183545
F           28.22437362446040        7.69467579398396        1.96809936438346
F           23.19410325578395        7.10194865047861       17.25152692572675
F           23.05157743566794        9.04309754395268       18.17538854967391
F           24.29682625986748        7.52213459939409       19.05933423363854
F           29.40680641523328       10.33983165848740       16.98782140311143
F           28.35564971618512       10.25835325075886       18.86784558970080
F           27.96386669035050       11.86275748825852       17.48126247954817
F           26.76407239104572        3.77478596685273       15.34296684970956
F           24.64979670131110        3.46180964123782       15.05569170352499
F           25.47222321398537        5.45476326757401       14.96690928548059
F           28.69161247841089        4.98846590150350        9.39434518322481
F           29.60450047898377        4.92194330491698       11.34704126181479
F           28.38350571305380        6.60337811309105       10.78774273095130
F           15.45663046961762       -2.51399205453828        9.46750324640749
F           14.50796120134073       -3.71910571063542        7.95197121762395
F           14.26074213319239       -1.57739431763670        7.94139751127000
F           17.53259798077140       -4.58571514265393        3.79785604193014
F           16.30986939157783       -2.93723910476262        3.14694493090474
F           18.45670917415123       -2.79130697595830        3.04135712695073
F           13.47362106695371        1.35104271300914        0.22694750825071
F           12.09844611046329        2.71236622658998       -0.72404166456564
F           12.78571318003958        3.08901050024555        1.28380401531520
F           16.08592845270179        7.09488505140761       -2.91443916824059
F           14.93363821081744        5.68563750140259       -4.06976554948048
F           13.95605663185871        6.95121397940846       -2.62726520323664
F           25.61765941150722       -1.30594127881673        4.53111953539097
F           27.47963187027426       -0.53842850622120        5.29063865164590
F           27.44922774190552       -1.64045085953073        3.44104694126018
F           28.84503452652023        2.77409710291709        0.26807842162151
F           29.86754878446660        2.68357158390734        2.15803327363675
F           28.62764173562980        4.38348736808425        1.68773988046866
F            8.69063096902540        1.46941866682485        3.05388881588039
F            9.68896437451170        1.43963484533815        4.96666676849653
F           10.77055809495392        0.92357795306746        3.17826151138511
F           12.01032887013355        5.58658486900890        0.12445688670894
F           10.33226205092147        6.85675268671856        0.56159330612654
F           10.00776003283641        4.90308160203781       -0.29438892249114
F            5.72030517864278       11.82907533870693       11.06585965820997
F            5.72762602588212       13.86304803558460       11.77826364893803
F            6.63087210691279       12.30564663088127       12.96258992169743
F           11.10405069191992       16.08096860438120        9.81545339175231
F           11.25225745111436       15.60505000490652       11.91009655212905
F            9.55732454197888       16.71999163954129       11.17678553353389
F           25.00047692401933       11.77397813128198       19.06765456490567
F           23.14185633064867       12.82134438215615       18.76032183385657
F           25.01087017202882       13.89276192719696       18.66628692530329
F           27.83539467181394       12.20709632503053       13.99310007041672
F           26.50868558618436       13.29730745190245       12.69799126607153
F           27.33748127732532       14.25416028534548       14.44586594463371
F           16.46177310394044        1.64789074055198       14.96158551697904
F           15.15333519185152        1.50899355895596       16.66896762406808
F           17.28524635061042        1.60355628666851       16.95139707543227
F           13.09264410223179        6.37057479604446       17.46915471076854
F           14.67649760157735        7.56039868172481       18.32780037379425
F           14.15868685105218        5.65610888960256       19.19801857659393
F           23.94881552826288       12.15350174724566        0.52092923312630
F           22.50806557541467       13.73847924423451        0.28891504818565
F           23.67143169289398       13.07950776248472       -1.40314947970604
F           21.57157680301799        9.21603039084622       -4.15443713065588
F           20.60828383592831        7.71112182123377       -2.94816484355474
F           22.71281937573039        8.10039057527287       -2.70865754582064
F            9.02627204735204        7.79769368210479        3.62980139578366
F            8.69449009146006        8.11133236392011        5.73540370126279
F            7.35895402115120        8.99272246937320        4.29369775242657
F            9.27538210660620       14.43690041218540        5.38960644466050
F           10.56366054858855       13.69169261419763        6.94633210030275
F            8.48247533409692       13.13310883622810        6.91171847019291
F           13.82431145720473       14.11837973661218        1.44558894560776
F           14.16420538520146       12.56510451069894       -0.00699968297641
F           13.86975469872989       14.59578133531108       -0.65953383202055
F           19.61902452263467       15.67988852860699       -1.89083449583793
F           18.14352448934534       14.62127788427990       -3.05146046512077
F           19.72978430686234       13.53740356723264       -2.06819521918978
F           25.12677895956859       15.74760925520801       13.11852613327649
F           23.62096038589569       14.21828208146711       12.91508784796158
F           23.14752464342028       16.26272804815743       12.43768812850850
F           28.18342653012008       15.87896938603357        8.79066258250534
F           27.80180324050591       14.08460686501225        7.65587221115324
F           28.32022461472827       13.95161850867109        9.74231535536185
F           21.19608459654300       18.55443730149454        2.41950213480489
F           19.70525272627523       17.28554539274938        3.32167790670921
F           20.45235040529055       16.82974733946407        1.35616658700439
F           24.33591021425329       16.97105722531575        6.77617695966535
F           25.18137627805175       18.01575034513196        5.09315606992886
F           25.91512343352091       16.06072288448893        5.63667197397502
F           26.46210084811044        4.14129625586922       -0.91585093969300
F           25.66991361450147        3.09950590793378       -2.63193436454264
F           25.38804579140528        2.29265087175397       -0.65526801221102
F           20.20393496580596        2.65581252962637       -1.87812205840018
F           20.81781225322221        3.54323446112048       -3.74123467676785
F           19.52659735319832        4.63224476374762       -2.39900429621345
F           11.96754280540029       -0.01289424063348       10.28627364499348
F           10.07389166363527        0.75054299734911        9.60876164453026
F           11.74155151460642        2.09059972413934        9.87966893989493
F           11.25824382089844       -2.36082102371412        4.48961450056324
F           11.27028622504753       -3.17702512845741        6.48413428369721
F           13.12842378595825       -2.86040451386995        5.43229956878425
F           11.32387705893250       11.50084424482201       -1.09402942978160
F           10.58571698886503        9.50778561656760       -1.43282665987977
F           10.83877232599583       10.23057132496236        0.58198957992591
F           15.66511368893776       10.68229524928900       -3.47077737966767
F           17.22643728328740        9.71123230432307       -2.34266435877894
F           16.47263413592231       11.62723086209659       -1.71338715819997
F           29.59017900663675        0.19396804384724        8.88245660624240
F           28.46529049030119       -0.97466834616817       10.30024278118350
F           28.43138151024786        1.18097370763706       10.40665226704704
F           24.74959254329082       -3.06317863647313        8.03584563671696
F           23.65012767698446       -2.00828394772360        6.50884985874266
F           23.24796884079587       -1.61722552094495        8.58580906536699
F           28.16211150905568       13.23011893809508        3.88722057014718
F           26.33453600083845       14.14512487546660        3.21385628122225
F           26.35929489756770       13.01888923111182        5.05278404125448
F           27.40490497862613        9.78627514267770       -1.00049465822730
F           26.84908594372455       11.86610524831825       -1.08268331024099
F           25.33043732904242       10.33468981548386       -1.17267158951895
F           12.38220926627081        9.52071028689529       14.43313720559048
F           13.60221475061388        8.62765622868583       15.96273207283676
F           11.46575753375497        8.78688049174250       16.23601091182303
F            9.31372231026939        3.74217657793860       13.60092840902916
F            9.16880644200021        5.19806336856078       12.02119395863747
F            8.47653190588733        5.68591417182252       14.00414556198158
F           24.24663982154755        0.36035232844529       12.66490419700029
F           24.58132627999352       -1.77120831838085       12.61012089132231
F           24.78175467828800       -0.60171235275801       10.81456021605503
F           20.04258192721915       -4.56375728133272       11.13191626799477
F           19.36630950307285       -3.53819066250960        9.36127019857436
F           21.38628915428177       -4.29007554824092        9.47303183094650
F           20.90784055827620       -0.97153300486202        1.43724250221720
F           20.61808340341043       -0.75383162503778       -0.68654231974182
F           20.81598151486087        0.99104339518927        0.56184863160107
F           16.17630900732086       -1.10578194764107       -2.32744009331170
F           15.32275311192213        0.80213214685312       -1.80542108160267
F           14.47776800672851       -1.01360732351140       -1.00478031842016
F           16.76833712074435       -1.78954671570890       14.88891334140030
F           17.85323642843739       -1.91777423849466       13.02634201897783
F           16.12896717369280       -3.16505074207189       13.36214985011459
F           12.32074401839981        0.38437633012136       14.90099848828029
F           11.77831599429726        1.67517819677678       13.26079232269788
F           13.24882058974313        2.31724127308145       14.69517767909467
F           20.27837690463732        9.09749269775371       16.68494472160419
F           20.17585208277827       10.21002651427914       18.53112122941576
F           20.48240658024598       11.23964539967132       16.66109381862901
F           15.81558469512651       11.68322806300153       20.06714450527538
F           14.07893474829322       11.31643895209978       18.84241316157848
F           15.22962823474029       13.11600598992348       18.56372843568451
F            8.23644942236744        3.11908908102645        8.78796354091319
F           10.16869142144298        3.27586552375957        7.84477675622652
F            8.40284185173574        3.92732274784811        6.79958155124328
F            6.69662940399737        9.02807459514070        9.63415173905046
F            6.28989452499865        8.13169832794438        7.71768846561477
F            7.83648704021741        9.62558143058466        7.91258982712121
F           21.33664425865016        0.27380719171071       14.76343939339222
F           19.21548571728933        0.61503177373753       14.90020938851231
F           20.35027055933357        0.18141799512922       16.68109216370669
F           18.38079239390157        4.48179710456548       18.39290113920427
F           19.30578380479906        6.33175756059817       17.79133694061657
F           20.30562373548980        5.03123260505558       19.19072566286828
F           13.63705124867011       16.95822020462237        2.24951998792707
F           15.03420307793733       18.55509748546890        2.63029854336178
F           15.67236723334000       16.79828742039784        1.56006703058154
F           17.64530293022818       16.98563061957197        7.93226723354850
F           17.98860815968261       18.45494786260558        6.39202151539571
F           19.01031444455038       16.55923195077581        6.32596160012476
C           20.17493079505671       16.95951137741310       13.60489752142509
C           20.10087549667285       16.65123695364329       12.13213339114217
C           19.24425882531465       15.64093291016666       11.72193118462649
H           18.62834809957782       15.13161877153746       12.45195215389962
C           19.16272789927709       15.28207674175395       10.37284793920231
C           18.22885367448383       14.27131602177817       10.02149459594968
C           17.31345684370527       13.47315543098523        9.92038429207027
C           19.95112714957396       15.96168820998593        9.44107957873950
H           19.90174064313111       15.69684211815894        8.39363592192902
C           20.87274293541599       17.34038339294155       11.20511823582892
H           21.53942069737632       18.13270445825262       11.52101287049189
C           20.78633828753128       16.98810828045736        9.85971516169936
C           21.63004203549767       17.75728865409690        8.87456696886509
C            8.79210516668932        9.38814585733726       13.04658433078860
C            9.72902178133426       10.56428040969533       13.10217886089276
C           10.83757313104309       10.60301018598239       12.26963296259506
H           11.04074839945903        9.78023671431882       11.59700902515049
C           11.70144586531789       11.70076569793607       12.30247260915535
C           12.84251150307042       11.74553735773075       11.46117309126151
C           13.82473133060076       11.82046110293788       10.74452129164925
C           11.42957660411281       12.76144660222585       13.17344189303419
H           12.09112096003029       13.61824578446416       13.20838280889919
C            9.44758016923565       11.62126145343923       13.96100214430942
H            8.57127403280723       11.59321733955812       14.59636447384648
C           10.30617140157575       12.71591320303797       13.98678231656217
C            9.96355209400772       13.89571577047749       14.85920238752824
C           14.96731316770699       13.70751578425004       14.14066245137500
C           16.40163223992715       13.68695796716780       14.59708446563909
C           17.37149200539036       13.17322801860630       13.74887495941678
H           17.09179070623874       12.79469995655799       12.77346206241070
C           18.71419570735184       13.15056442694331       14.14085144904696
C           19.69972523589438       12.65549567873378       13.24995044169066
C           20.54769983186811       12.29309725596171       12.44845304889941
C           19.06403816235793       13.64202648251224       15.40312421093715
H           20.10075884482502       13.63922423004810       15.71573489221293
C           16.74582337003584       14.16958469767033       15.85588429789219
H           15.98782673374279       14.56479623351920       16.52085142152851
C           18.08236024842694       14.14426657829115       16.24527717683526
C           18.46259539996690       14.64120867601943       17.61766680989187
C           29.65810479976266       10.28449423709225       11.80389182859563
C           28.72701378857462       10.64153010179698       10.67393051296787
C           27.40550248513602       10.96660371147181       10.94836296074919
H           27.05403611791617       10.97164583711853       11.97117745771258
C           26.52492062737297       11.29413553694547        9.90843030760516
C           25.16225593000802       11.54595945625017       10.22886354451381
C           24.01697424758085       11.72884021118726       10.59873231765452
C           26.99693579696109       11.29935778898649        8.59057296105852
H           26.32652394711306       11.54091897272541        7.77503232658320
C           29.19401667909179       10.64183209575972        9.36571541482087
H           30.22084331689006       10.37610209230590        9.14740532174908
C           28.32001777708311       10.97212503781586        8.33320464006499
C           28.85745118433905       10.94224239930452        6.92628989291620
C           29.39322634678953        3.68823329745461        5.45749471235560
C           28.94182293266720        5.12142775043331        5.36813712831454
C           28.18662993690643        5.65413013220967        6.40230064996506
H           27.94685306600837        5.04666884803725        7.26458750432739
C           27.75694295947249        6.98563736110131        6.34849976502511
C           27.03340290137514        7.49352953233039        7.45714839165203
C           26.48055869126085        7.84778792564790        8.47982377071524
C           28.06833595459502        7.75888610684613        5.22642967068960
H           27.74064460758355        8.78796238593783        5.17032846704977
C           29.25300693192348        5.88821478995030        4.25047167879718
H           29.83750948840407        5.47006161388321        3.44082734968201
C           28.80232408446533        7.20426321805080        4.18809387506285
C           29.08628953007252        8.01269419580410        2.94798351684353
C           23.89705578547604        8.04067162665370       17.89661044005344
C           25.05804391692496        8.54061261814740       17.07536291694670
C           25.06940201027767        8.34218324884682       15.70509821180102
H           24.26691710837359        7.79165385735594       15.22997547843824
C           26.11281893841303        8.85788717255720       14.92515073239893
C           26.04004297557740        8.65199089912147       13.52521822171277
C           25.81205862209040        8.40362393784365       12.35084558351587
C           27.15215845267869        9.55518602884520       15.54344827185826
H           27.96807798559956        9.95305931965524       14.95315860062257
C           26.08268176281536        9.25135993112471       17.69494287575271
H           26.06373096292570        9.42069823469006       18.76430932011385
C           27.12771496296872        9.74391317469836       16.92012211378791
C           28.22478808605531       10.54636917205160       17.57059669964495
C           25.70032955059698        4.16778507302639       14.63832832604835
C           25.93365957714869        4.04140514287698       13.15573510649879
C           25.03776743316418        3.36409676841573       12.34279334493866
H           24.16912742293953        2.88250259414596       12.77374293991734
C           25.24647639606865        3.30849825543568       10.95913602958234
C           24.29879840099470        2.65209032039021       10.13246297092804
C           23.48249958182305        2.08413542696940        9.43185759866941
C           26.37453104048371        3.93293306147995       10.41307370569747
H           26.54926346781746        3.89094079382475        9.34538205044571
C           27.06180142077446        4.65364285048158       12.61527993979100
H           27.76431675944439        5.17276368197020       13.25541189234875
C           27.27735908775540        4.58472518960525       11.24292796658114
C           28.50107459715346        5.26075334288644       10.68571705942826
C           15.14524473765471       -2.57217576039111        8.16784348913721
C           16.35259368792333       -2.40008612977608        7.28918687946459
C           17.44304829352961       -1.68664873545219        7.77020411827573
H           17.43820385597670       -1.30886631132031        8.78472618171540
C           18.55632955116307       -1.46878868038765        6.95292773823971
C           19.64857162839300       -0.71516884537813        7.44792347650529
C           20.58505727327628       -0.07226014623921        7.87099095433628
C           18.55822823905741       -1.97504296974420        5.64821483276297
H           19.41274961030577       -1.79882435422598        5.00649956163841
C           16.34922187988020       -2.90286871664480        5.99283704249985
H           15.49158647751773       -3.44705959926504        5.61697852934963
C           17.46171006321508       -2.68556195225186        5.18261742708289
C           17.44600231710897       -3.24932663971048        3.78533335803461
C           13.16697743878623        2.63911976374130        0.06250797470453
C           17.92337500976960        3.84132943241607        0.41692479274027
C           19.03321225806325        3.69511383420814        0.89210169589998
C           16.50864988527355        4.99735022760120       -1.20742901208891
H           17.35536113284711        5.60635483212484       -1.50020470788710
C           15.26562575280397        5.18639081274528       -1.79250603591632
C           14.16721935371000        4.41803441779018       -1.41200763849664
H           13.19772847360171        4.58680421056909       -1.86286868752173
C           14.33255578680137        3.44573403773226       -0.43412506617373
C           15.57185490024902        3.24063424204004        0.15796250823084
H           15.68922661955686        2.47247722702514        0.91270644711879
C           16.66805452271570        4.01807096889326       -0.22048089200019
C           15.06809448512033        6.23385561764579       -2.85688776804344
C           26.77168119470112       -0.74375883014009        4.16650849941191
C           26.57036443728608        0.54215596476504        3.40987016493004
C           25.30825333169186        1.10029466125901        3.27363946833656