226
 energy: -328.590361939134 gnorm: 0.000042452510 xtb: 6.5.1 (579679a)
Au          -2.37804170018655        1.19140016418987        0.11672726359836
Au          -0.29738444285405        1.90266717023145       -1.62198228379175
P           -1.68682644108000        1.71520143675126        2.37833809156475
P            0.12227599817268        4.11272389654737       -2.42415616847458
C            0.06400269213461        1.17684590580849        2.72906434996511
C            1.10587601847044        1.93275426450138        1.89946238564893
C            1.88499367888630        4.38994527632449       -2.94916171778995
Au          -0.44625907015660       -0.59184043484860       -0.89829867879353
P           -4.40611227758665        0.87941663159081       -1.16425709087841
Au           0.67888211492135       -0.11286058203840       -3.59904784538402
Au           2.23602821892638        0.39679501885812       -1.57615683948144
C            2.50135932614267        1.29985956833591        2.04425862674300
C            2.26717698004118        3.43590514161911       -4.08439678519312
P           -0.30161036137948       -2.95086666851396       -0.53482436729711
C           -4.17718218209628       -0.34436387737703       -2.55398273013966
Au           3.45154613305095       -0.29363170076850       -4.01180545690787
P           -1.01527789177295       -0.53382376925107       -5.23576625319841
P            3.39172988498293        1.02565095629857        0.42557691159320
C            3.78384326649256        3.27067364185921       -4.21430235662188
C            0.44296295209666       -3.86937358689523       -1.97098158668661
C           -3.17517139587040        0.16406378746065       -3.59428517523649
P            4.23124110912426        1.71477913647341       -5.14108654569117
P            3.85882745281877       -2.69583134002708       -4.10386118554997
C           -2.66800948359317       -0.96272524165196       -4.50025490694921
C            1.89741216582572       -3.43515324134830       -2.19799138186520
C            2.34473204103445       -3.68507665968743       -3.64140208979436
H            0.11152709372753        0.11259067676356        2.47998589777996
H            1.13586584398857        2.97974136862172        2.21228727687357
H            0.79820526442756        1.92151576442661        0.84800899036912
H            2.51107245178447        4.18552473784948       -2.07525824685959
H            2.07032784939465        5.42601153799358       -3.24228681545109
H            2.40287347634348        0.31079975040262        2.50040753491780
H            3.11751389878639        1.89216935537360        2.72510363332165
H            1.84878560847539        3.79709333112449       -5.02750528478147
H            1.81956558656880        2.45603406589942       -3.88628562199336
H           -3.79743808402850       -1.26711576760975       -2.10411956884982
H            4.22486262387249        3.17538257533200       -3.21706969233518
H            4.22444704720944        4.15934221768100       -4.67305453406078
H           -0.14801899193029       -3.62091175152697       -2.85628060621042
H            0.38695096906353       -4.95216616539846       -1.83563949574352
H           -2.32238415109124        0.61340202581794       -3.07407552203215
H           -3.63358800932852        0.94986068872577       -4.20056348105781
H           -2.52167760005553       -1.86590701231318       -3.90089374413917
H           -3.41133009538466       -1.20223309794237       -5.26421303985789
H            2.55664436458642       -3.96432004201643       -1.50476539293937
H            1.99015427942602       -2.36631084730611       -1.97717057415816
H            2.49813693247353       -4.75445173009534       -3.80714043524116
H            1.55022255698018       -3.36741346974959       -4.32395466407005
H           -4.61533882926971       -1.62151864856106        5.93754397105626
C           -4.04908237116823       -0.97221739039703        5.28034095376793
C           -3.84448761095838        0.35696626523275        5.62225530667188
H           -4.25053130913923        0.74832489772063        6.54777357201533
C           -3.12345282906579        1.19355229368716        4.78259913270339
H           -2.97425181293130        2.23169511897912        5.05662280259097
C           -2.59498255419592        0.70406412250702        3.58770832346108
C           -2.81679225058706       -0.63504522526323        3.24691077992891
H           -2.42729788869037       -1.02031317486728        2.30882102989727
C           -3.53305683115755       -1.46792653717618        4.08939780103664
H           -3.69581333405776       -2.50366803458966        3.81290161695106
C            6.02378904326501        1.94737082351191       -5.36593490007320
C            6.85779357451501        1.46441392280789       -4.35270716620695
C            6.59880869129743        2.56310690654970       -6.47891556164938
C            8.23207588431774        1.61516772059515       -4.43720768311563
H            6.41953337673391        0.96013092751129       -3.49647997755879
C            7.97569592160569        2.70554961944079       -6.56416529230413
H            5.97053478576269        2.92829452407138       -7.28326795144433
C            8.79325358793567        2.23829407586428       -5.54447122664641
H            8.86588514399851        1.23934471075135       -3.64223302062078
H            8.41129788945873        3.18413064486446       -7.43357395636025
H            9.86845606527574        2.35251892912496       -5.61528129132133
C            3.47150159674739        1.95037037644517       -6.77704013956680
C            3.34166014953052        3.18967734079349       -7.41175847865820
C            2.97332161041876        0.81407752583003       -7.42076500075941
C            2.73399982214318        3.28146321810018       -8.65530321084572
H            3.71535283081336        4.08873458560160       -6.93539320937685
C            2.37085228026232        0.90650624092220       -8.66502300222230
H            3.06253690628489       -0.15214597853648       -6.93485693109077
C            2.24909074627928        2.14242756345822       -9.28498073673913
H            2.64301137658361        4.24817101988885       -9.13690763223804
H            1.99628869993441        0.01269059284583       -9.15077634795237
H            1.77595505740617        2.21923648813027      -10.25678012351784
C            4.33839155199303        2.54140179951990        0.10850415953979
C            4.01898242657037        3.78876828087067        0.64681411327828
C            5.35241905987594        2.46581529341960       -0.85403662120980
C            4.70131954843793        4.92685874291110        0.23952392141386
H            3.24054039494534        3.87616727251236        1.39556639494034
C            6.03763844082265        3.60132086054278       -1.25373874642571
H            5.60544286418987        1.50224436402446       -1.28504898071912
C            5.70898989133363        4.83739570005720       -0.70991893470900
H            4.44245238873978        5.88790711125535        0.66885434193759
H            6.82752264719885        3.52170574361636       -1.99213944069402
H            6.23903428274873        5.72795456716287       -1.02606334837951
C            4.64754909370792       -0.19185749204788        0.92480448695805
C            5.77830918868663        0.14126515110067        1.67511526693634
C            4.43440228916608       -1.52874944789986        0.58086354179849
C            6.66650178455937       -0.84476537976660        2.07537394688540
H            5.96219798494518        1.17574693984074        1.94277774866181
C            5.31555422040738       -2.51472159201219        0.99497378191620
H            3.56730507712019       -1.79384794757783       -0.01528063351015
C            6.43384548720684       -2.17320677779477        1.74362835703444
H            7.54216695494905       -0.57570373835679        2.65449011886282
H            5.13125901012001       -3.54928852038850        0.72864671466563
H            7.12617369667713       -2.94228855017055        2.06538850657468
C           -0.88930922002272        4.63453165936594       -3.83914624596263
C           -0.59706765099720        5.74363009066155       -4.63900885516134
C           -2.04046971880403        3.89308208180422       -4.11534797470655
C           -1.44283296727553        6.10002078074588       -5.67800838702249
H            0.29093020201224        6.33450607171763       -4.44515278494577
C           -2.88880270733843        4.25424903424815       -5.14934894672935
H           -2.27083192668278        3.02779047634739       -3.50327171992506
C           -2.59204343078438        5.36210784951395       -5.93117479867222
H           -1.20684704508384        6.96285207656669       -6.28992705901896
H           -3.78055423953110        3.66966599703207       -5.34556112568505
H           -3.25410919662210        5.64908628946797       -6.73958179842724
C           -0.11446481833062        5.41385297478395       -1.17511300100053
C            0.61284512911189        5.29617840204262        0.01385459195870
C           -1.02661494019877        6.46178627154518       -1.30516327824121
C            0.45878417782391        6.22087434746852        1.03239073874295
H            1.30624740734430        4.47015210474957        0.13369348700025
C           -1.18332090323649        7.38478287913915       -0.28125350931364
H           -1.61338266134298        6.56093581696752       -2.21127092543907
C           -0.43845375314199        7.27130594123808        0.88406048045672
H            1.03421420074042        6.11938545032853        1.94560872251734
H           -1.89062300564338        8.19786549828159       -0.39674901292640
H           -0.56025085624394        7.99635437246984        1.68000151067444
C           -1.76069443417273        3.43213205298903        2.97040149199483
C           -2.55676281584850        4.32701625879379        2.25013724121650
C           -1.07254670462732        3.89927654243311        4.09483876994354
C           -2.67649960549234        5.64886639987272        2.64752718909450
H           -3.08644515396669        3.97654405000192        1.36991248914689
C           -1.18846128447916        5.22402562085520        4.48658827772659
H           -0.44657318523962        3.22624198851819        4.66953603151790
C           -1.99262811731038        6.09935509436493        3.76865235956541
H           -3.30133702100994        6.32851018131081        2.07970593231282
H           -0.65134707652633        5.57319117154697        5.36080880846333
H           -2.08519589294094        7.13232609664970        4.08271322821243
C            0.70856132964776       -3.51745727523357        0.86418938504279
C            0.87294997587430       -4.86988689600831        1.18075963668511
C            1.37697234361493       -2.56108474193235        1.62971574876685
C            1.68995705686721       -5.24650183457251        2.23459630754202
H            0.35706336434000       -5.62715165272094        0.60079621976142
C            2.19285719270308       -2.93913241721653        2.68486364284098
H            1.25163842269027       -1.51114656707044        1.38681740911526
C            2.35221248245566       -4.28416546834326        2.98667637771207
H            1.81088014504246       -6.29720343103544        2.47125719558281
H            2.70644595785394       -2.18303695747870        3.26786801266871
H            2.99091635825260       -4.58367545084311        3.80922251381677
C           -1.93174352243302       -3.71382632005703       -0.29206292665002
C           -2.79997915474652       -3.85636028571431       -1.37962231148591
C           -2.41443599012287       -3.98310190573860        0.99164655655408
C           -4.10534106654689       -4.28120511782733       -1.19014822934888
H           -2.44937490077449       -3.63811607762823       -2.38303863835582
C           -3.72127907791440       -4.40771937541563        1.17814121643363
H           -1.76081595469485       -3.86438369203151        1.84868279672310
C           -4.56960833878720       -4.55738390320933        0.08953336178462
H           -4.76315306078286       -4.39454798907081       -2.04417909668853
H           -4.07800769712703       -4.62175271168160        2.17912024134657
H           -5.59093162850293       -4.88786106930659        0.23687376888555
C           -5.01535446636190        2.36472997366185       -2.01562525077092
C           -5.98140843474325        2.33585427510932       -3.02671399744498
C           -4.45001347390133        3.59314166152160       -1.66316451276605
C           -6.36796276642115        3.50694327017189       -3.66011614866547
H           -6.43237365268500        1.39461005483384       -3.32019945520448
C           -4.83889977525455        4.76322118850895       -2.29566430203125
H           -3.69421262087709        3.62536702943552       -0.88485007882442
C           -5.79945990348996        4.72131064325342       -3.29692438829905
H           -7.11840131781415        3.47154269715193       -4.44129937118176
H           -4.38751225716886        5.70663852441861       -2.01023002773751
H           -6.10464997209449        5.63379173267668       -3.79536213696140
C           -5.80942473482752        0.14398968076669       -0.27180980406932
C           -5.54055179359056       -1.00324208842824        0.48376448579473
C           -7.09234827899413        0.69155924003567       -0.23791664603237
C           -6.53832134486884       -1.60227148851896        1.23347091107965
H           -4.53892650576169       -1.42303916601722        0.48417826567204
C           -8.08827616019789        0.08964874736344        0.51752471267380
H           -7.31399665046699        1.59073214514509       -0.80131559813357
C           -7.81606540036997       -1.05682472663414        1.25035708289775
H           -6.31622824422563       -2.49245708892402        1.81117533064265
H           -9.08193578072043        0.52206173863643        0.53458359885737
H           -8.59645315605632       -1.52242652839675        1.84054273818355
C           -0.70659756813579       -1.91547665644836       -6.38049978501132
C           -0.72894753491023       -3.22569213853457       -5.89042683038996
C           -0.33718701421367       -1.70432535980656       -7.71096480026059
C           -0.41303414828615       -4.29440015095101       -6.71377272414437
H           -1.00765192673317       -3.41049438194907       -4.85821044966011
C           -0.02477188793300       -2.77605106376503       -8.53415349940052
H           -0.30324009236986       -0.69630947369737       -8.10830105595802
C           -0.06162844949049       -4.07231731000991       -8.03898179373362
H           -0.44243628531951       -5.30363600043572       -6.31954986131941
H            0.24509922117411       -2.59570130551332       -9.56830296149545
H            0.18288770213899       -4.90823363815236       -8.68345214302357
C           -1.33449168586305        0.87692529914361       -6.33485155717000
C           -2.48404342388645        1.00372177382366       -7.12047657687277
C           -0.35210013795817        1.86625000089831       -6.41878962785744
C           -2.63693652947990        2.09025797221017       -7.96753449039952
H           -3.25852253360228        0.24643303080086       -7.07687854944533
C           -0.50346843604252        2.94900898673007       -7.26955601169532
H            0.54178393214938        1.77444738730229       -5.81170182814099
C           -1.64664895469731        3.06097716312561       -8.04847945937170
H           -3.53165395751374        2.17676109701879       -8.57301878446899
H            0.27121480369159        3.70553184069436       -7.32345426888965
H           -1.76769542484276        3.90539700325828       -8.71668391061156
C            5.16782093408946       -3.33791361810229       -3.01996573320074
C            5.32133221197915       -4.69311462940603       -2.71002499209237
C            6.06856517085052       -2.41773351502840       -2.47750657545982
C            6.35246577099520       -5.10963798895420       -1.88271835042595
H            4.63501906974373       -5.42530511776928       -3.12029463388437
C            7.10367164666729       -2.83697525959092       -1.65715823372096
H            5.95095971710232       -1.36269830901145       -2.70444460842923
C            7.24707090486544       -4.18528503002642       -1.35865926508157
H            6.46160006580849       -6.16254224166861       -1.65003510109232
H            7.79554219302224       -2.11063174635508       -1.24658130000217
H            8.05525231575022       -4.51618766274475       -0.71708617552673
C            4.20407297798293       -3.36344457366296       -5.76132345075057
C            3.29066789131859       -3.06048532296496       -6.77765803853412
C            5.36025710434725       -4.07577898716950       -6.08304739613833
C            3.51890514471757       -3.48011989402615       -8.07724984995818
H            2.39533290695702       -2.49227178274270       -6.54389883571362
C            5.58511159609628       -4.49338028024238       -7.38672894421190
H            6.08684847325467       -4.30661764378443       -5.31251308499246
C            4.66706179222794       -4.19922288135372       -8.38463755987237
H            2.80027151009554       -3.24086514625054       -8.85290326554574
H            6.48485349038916       -5.04961638754881       -7.62273504643615
H            4.84696516892024       -4.52452655075540       -9.40241997491423
H            0.30081982000982        1.26614771499623        3.79253039718066
H           -5.12765859958564       -0.58908362450359       -3.03483686881022
