223
 energy: -340.079574177374 gnorm: 0.000626372691 xtb: 6.5.1 (579679a)
Au           9.07645025009379        7.84169210238076        6.32597880752276
Au           7.68432049981468        8.79762004139708        8.75011186703656
Au           6.22053061036679        8.27651104514449        6.27882592033144
Au           7.37259062053572        5.50814259195072        6.15857081089507
Au           8.94476810968968        6.02457502200894        8.58483665115372
Au           5.61466910627066        6.43966159088204        8.36315270406755
P           10.72483817054565        8.68403219914972        4.89127162183369
P            7.64842022959940       10.94382086564611        9.70549700670856
P            4.77839850884693        9.59394151551028        4.99946561634289
P            7.43511027233637        3.88648579314355        4.47154697566516
P           10.87973238785935        4.88468914345378        9.27245999631740
P            3.47893375029654        5.73200350599659        9.02041495628321
C            7.45021543347443        7.07899938224152        7.56509842712570
C           10.33114562385921        7.92570321950464        3.29626526170252
C           11.15097162946247        7.77261185700600        2.18506365767373
H           12.15834981751200        8.17130748275178        2.19420495430517
C           10.66281510129150        7.09474855206722        1.07800025296973
H           11.28861718308838        6.95236793023179        0.20390971970104
C            9.36513619649367        6.59494453539850        1.10836900479665
C            8.61303035295909        6.80776913578895        2.26291931696768
H            7.59694075156576        6.43196102330602        2.33182187898709
C            8.77334708086435        5.83492217226572       -0.04173105379022
H            8.34758323504420        4.89388061134119        0.31040643946490
H            9.52637173545533        5.62120043682884       -0.79895232744368
H            7.97091338729761        6.41452836880606       -0.50145956681813
C           10.58048646470550       10.47483932781812        4.62037005859619
C           10.94620100832455       11.33880416631469        5.65871851267671
H           11.39005326343944       10.93370532588817        6.56259570527974
C           10.74896634807346       12.70484527754308        5.54235201989740
H           11.04297240026925       13.36243257503773        6.35243916121240
C           10.16723396582147       13.22828598431951        4.39423702800363
H           10.00911697033376       14.29648379341787        4.30460800087935
C            9.78282008008358       12.37831754457220        3.36618140390853
H            9.32030010795352       12.77977701962011        2.47174247498775
C            9.98515039367135       11.01059550938022        3.47746408611373
H            9.67599072212249       10.35494854938279        2.67144374661465
C           12.50497441314815        8.36608108844024        5.11037121253202
C           12.87521704441817        7.11947137449866        5.62431039505917
H           12.10639490071991        6.40774089287633        5.90782829225341
C           14.21156737625281        6.79453589938699        5.78969529158894
H           14.48559460527239        5.82351661441921        6.18586590071779
C           15.19720178060123        7.71476667352108        5.45679554341276
H           16.24250408574423        7.46243401947436        5.59030852861942
C           14.83996655360192        8.95884493807020        4.95442823378597
H           15.60594003016142        9.67964299371086        4.69309744619550
C           13.50282996853497        9.28389691435916        4.77821091483021
H           13.23305102882336       10.25634863064624        4.38258255012179
C            6.10825451914892       10.89242548241887       10.65274779006141
C            5.64500232156947       11.73035944500788       11.65932543869071
H            6.26133070416802       12.54592023215972       12.01759539800226
C            4.38924835628436       11.49847523970116       12.19772530762421
H            4.00438746342359       12.13839531319733       12.98401595548110
C            3.62760952351494       10.43558042731285       11.71733487068004
C            4.17885398609602        9.64193997671471       10.71482071207356
H            3.62953368301944        8.79344258305792       10.31557363442744
C            2.26528033580200       10.14249567635149       12.27337919975147
H            2.35032619871058        9.78224182568432       13.30016502543041
H            1.75725926405256        9.38223645000494       11.68034731075561
H            1.65579919678309       11.04667197138597       12.28521439046944
C            7.24414522733589       12.14599166027474        8.39133476225586
C            7.58403577115615       11.85413683067350        7.06948844283869
H            8.13751649251383       10.94899716178036        6.84709306835711
C            6.51730983003462       13.86929658478225        6.31267716425510
H            6.22462970270663       14.53122309165832        5.50612097212441
C            7.21928186960675       12.70472078725086        6.03709348115464
H            7.48087871296747       12.45389077237891        5.01534595378775
C            6.19134128436936       14.18315731927443        7.62574813826488
H            5.64827423853964       15.09463520230034        7.84743035217963
C            6.54902120241025       13.32915784734487        8.65731716831711
H            6.27925436380698       13.57884091057317        9.67747947314075
C            8.87067668400650       11.81728174866599       10.73116102935036
C            9.03647709017089       11.43274431960515       12.06564810128179
H            8.40073784637360       10.66025386062362       12.48554058238548
C           10.00146881892866       12.03734293630086       12.85513303113223
H           10.11277816430172       11.73917042775411       13.89121368931784
C           10.82362937478968       13.02050514055581       12.32020734059176
H           11.57715543644994       13.49322217066391       12.93902629873876
C           10.68022156263283       13.39502923275900       10.99117469904569
H           11.32268612253341       14.15905769529564       10.56871358105875
C            9.71362484026762       12.79594712526316       10.19833025772509
H            9.60567996958089       13.09440918036371        9.16116386138700
C            3.97484930683492       10.93364412614579        5.92378848342676
C            4.18102791460207       11.13297792798499        7.28267898621128
H            4.88088251023815       10.50668601032144        7.82263373229567
C            3.48168252533381       12.13823337780723        7.93198078701351
H            3.62573080014032       12.30667982873451        8.99393064078137
C            2.59475535183046       12.92112038740631        7.20159365089454
C            2.45160886181815       12.64706999878852        5.83983650997426
H            1.76748616176325       13.22882486303073        5.22905445149657
C            1.82151073640851       14.03592682904573        7.84208166450243
H            1.82672005787577       13.94022644367312        8.92737928932204
H            0.78972396565298       14.04092227965828        7.49030138118535
H            2.27048881097259       14.99592134954892        7.57929499097203
C            5.54938667959282       10.37229255595023        3.54840859546263
C            5.41051326297433       11.71137329783917        3.18220900041641
H            4.76295983821707       12.36575493802924        3.75297427898093
C            6.09227740514075       12.20965340305951        2.08089744501422
H            5.97505483661628       13.25163106659035        1.80633664626999
C            6.91660218960995       11.38220783120537        1.33111216423297
H            7.44259750979966       11.77467603599267        0.46872418907559
C            7.06470491374839       10.04769412831543        1.68909879438280
H            7.70579513930107        9.39272303170601        1.10955954447487
C            6.39193671935528        9.55104731010322        2.79270160582259
H            6.52126093948242        8.51317078532306        3.08115844423236
C            3.34796054378001        8.68878173355726        4.33385270699374
C            2.47603386629471        9.26346625889236        3.40592247266083
H            2.65679911046508       10.27317995947256        3.05537505255638
C            1.37925484172411        8.55223459667659        2.94611002397003
H            0.70783458644537        9.00646831338077        2.22672116622004
C            1.13749068712980        7.26339345989119        3.40493192782146
H            0.27839893396437        6.71067074478188        3.04303739134577
C            1.99664050966828        6.68528123537034        4.32914790237560
H            1.81430286742744        5.68104934602508        4.69537652878458
C            3.09567358568465        7.39360067229880        4.78967658922757
H            3.76025619606273        6.93703727492411        5.51524957572900
C            9.03519526868428        3.84521332585964        3.60471050405356
C           10.17027979279461        4.47021326749518        4.10678800286921
H           10.12100924074116        4.99962009341665        5.05069488443006
C           11.35154978012816        4.41243817854906        3.38588248458474
H           12.24569777041465        4.90117873638557        3.75823732088626
C           11.36993180640272        3.72362197324746        2.17755975679133
C           10.18529641049322        3.12018273401010        1.75452522798743
H           10.14971412723991        2.56896600576978        0.81940821980830
C           12.62270949232878        3.61705633651438        1.35897687057621
H           12.38913496589823        3.57778536609315        0.29527882754426
H           13.15830680412833        2.70236830329757        1.62163520627286
H           13.28259822216553        4.46333465591207        1.54849379616600
C            7.16543448711141        2.16180184902600        4.98564518889123
C            7.65302990111017        1.05334148737024        4.28899044446018
H            8.24874117064055        1.19367418585989        3.39473374228064
C            7.38216899275243       -0.22985718517452        4.73965617503618
H            7.76452529630430       -1.08190942560271        4.18970367646431
C            6.62632641934540       -0.42537493900218        5.88775404565767
H            6.41475055414544       -1.43001354113543        6.23437587927788
C            6.14952677412588        0.66962340314982        6.59594190247652
H            5.56751366714814        0.52561953957808        7.49914830516928
C            6.42334519294256        1.95316571654204        6.15112924373594
H            6.05834729873456        2.80772421833600        6.71087500679846
C            6.25616099025795        4.15555823953641        3.10811902620042
C            5.52427879008372        5.34714316555748        3.09544692861856
H            5.65675841545464        6.06379019677199        3.89910317760898
C            4.62951871516920        5.62003636375819        2.07199101800043
H            4.07208318664663        6.54954566716573        2.07901586097931
C            4.44905641284730        4.70141592297131        1.04741163125861
H            3.74877732613336        4.91127484528898        0.24749906402702
C            5.16621319785722        3.51230809104271        1.05164874105779
H            5.02708948415226        2.79198817828090        0.25388065801877
C            6.06314846106744        3.23870496596953        2.07286364398199
H            6.62278182919603        2.31152901630787        2.06295684973555
C           12.09702081068230        6.22323418746208        9.20922400790893
C           13.40182517753354        6.24221740528756        9.68858989999996
H           13.80993790510146        5.37186270945542       10.18790844621338
C           14.16184886533831        7.38971083290956        9.52620306324216
H           15.18375054477775        7.42514126026747        9.88705542589547
C           13.59502480793296        8.49778804196553        8.90218108749707
C           12.27517627241948        8.39413822670895        8.47090882851295
H           11.78093771401117        9.23589858021043        7.99277573320529
C           14.37895842774710        9.75752690578773        8.68048056717262
H           14.99769305059078        9.65021905357670        7.78664114689159
H           15.03773538806332        9.95810527922563        9.52503004705630
H           13.71499415116418       10.60942855071619        8.53475583197568
C           11.27909913552585        3.94891703422437       10.78215571241391
C           11.35285161859014        4.65000493368005       11.99083935600260
H           11.20937320197328        5.72571357709089       11.99762186294017
C           11.61605648978897        3.98076637954585       13.17479535416028
H           11.67965040270140        4.53572050469387       14.10365758209143
C           11.79534079371790        2.60339059241174       13.17093712966090
H           12.00056645905921        2.08076905577711       14.09770828927987
C           11.70853745357689        1.89764704180922       11.97909744751228
H           11.84475751678727        0.82239991817886       11.97220900317562
C           11.44861693760292        2.56286342595245       10.79050654334891
H           11.38424348280128        2.00388443534358        9.86383135800504
C           11.36899651946784        3.77011148886889        7.91482084164448
C           10.38248590463176        2.96022253723352        7.34452147520706
H            9.36823829292902        3.00289527397435        7.72749514822396
C           10.68701411252408        2.10418955980413        6.29770365335003
H            9.91172074808014        1.47904936390950        5.86916917075632
C           11.97963377075589        2.05667992470617        5.79316461159951
H           12.21641267862714        1.39499783406900        4.96824732209430
C           12.96610234503969        2.86192876756845        6.34578953118400
H           13.97697226281864        2.82849843296428        5.95593399104396
C           12.66564678214925        3.70905207274910        7.40220687915484
H           13.44635106605277        4.32632617018565        7.83211812922226
C            3.17195909455850        4.35061362662078        7.89191195107944
C            2.38926262232606        3.21473551001518        8.04960213472600
H            1.87165250379026        3.03364477693628        8.98379247834000
C            2.29137722786884        2.31818854655548        6.99681391141438
H            1.69752467310274        1.41666132128171        7.09914957229177
C            2.95815094977520        2.59356246233454        5.80603657736156
C            3.70490376580365        3.76719603435992        5.73497685748995
H            4.23701149582218        4.02792142067165        4.82534623906454
C            2.90769809787430        1.64645964386436        4.64316735225847
H            3.26187998805276        2.12838904570610        3.73204786583562
H            1.89183568903426        1.28514419240300        4.48345816563879
H            3.54515548184076        0.78290286144225        4.84497696625328
C            2.11674619235762        6.84526511473074        8.54385393965937
C            2.39963106394203        8.08338468503582        7.96731919242389
H            3.43170254535365        8.39283276048218        7.84442536191559
C            1.37545217516474        8.91586276556617        7.54066912787518
H            1.61151379428738        9.87272290791694        7.09008722390002
C            0.05385763050544        8.52037694100283        7.68439731845189
H           -0.74634112179586        9.16894589846406        7.34771100500329
C           -0.24115274065951        7.28928047854807        8.25649119559887
H           -1.27243142198428        6.97521560556935        8.36800833562429
C            0.78055340596595        6.45564011235882        8.68084457512043
H            0.54288174580432        5.49209117107887        9.11831874514559
C            3.04221012304371        5.15189588829348       10.68614002350384
C            2.28313587506669        5.92242155126274       11.57032346313116
H            1.88067516626037        6.87616620942680       11.24617661819933
C            2.03285258322142        5.47273160187954       12.85769025503484
H            1.43602299186007        6.07752167816368       13.53074811087280
C            2.54335222778576        4.25404299443916       13.28299875942940
H            2.34356669720452        3.90269211595228       14.28838260444855
C            3.31503069885462        3.48802311002336       12.41903554591827
H            3.72132240751146        2.53875917813217       12.74871289301194
C            3.57043773173231        3.93594599843983       11.13290386921699
H            4.18221308434793        3.33855798274663       10.46459372998432
N            9.08313656694369        7.44060239759003        3.32916449285448
N            5.38121039091376        9.86323900699539       10.19881037103329
N            3.11618668310918       11.68063624621919        5.22177220569590
N            9.05243305147437        3.18529170354198        2.44261207998662
N           11.55260902513427        7.29116984985505        8.61226255926797
N            3.82429162031657        4.61265404071603        6.75182203372504
