498
 energy: -939.918269915775 gnorm: 0.000087056967 xtb: 6.5.1 (579679a)
Au           9.56376744177236       29.91023241780546        7.94645446784391
Au           8.57177419240118       27.10265120326979        7.60777339235206
Au          11.39867059583325       26.73199337830548        7.94649608058642
Au          11.47866079052111       23.83038253014935        7.69348996565367
Au           8.70452645133481       23.95234570921200        7.53745998278649
Au           7.79634808044746       29.17064636404534        5.49471935379742
Au          10.60820231639632       28.51900092989004        5.65723155227009
Au           9.47207122379206       30.99936700248235        4.21702408380606
Au          12.83729594232337       29.52762614614669        3.89293243974679
Au          13.48357707722216       27.74634334109443        6.13179417053768
Au          16.47383396534672       30.04856312455722        8.89829345003260
Au          16.78458324469474       27.86565946875559        6.02524630887221
Au          14.82673019421376       27.53799962998911        3.81644311591109
Au          15.01923129360023       24.83588741146815        4.72930433704853
Au          14.03410063049828       22.90166940134130        6.60795459801427
Au          11.76859116362007       22.83921938413194        4.68707553137338
Au          10.02877828793715       21.31789166947165        7.83280431333140
Au           8.41207129044845       22.72790330413853        4.98071604576808
Au           6.89171578864031       26.37893055217615        5.28648620658112
Au           5.30213076433621       28.59925230948060        4.56633187252340
Au           5.27466815182354       31.27884015562835        5.59480502650636
Au           7.88407292300102       33.43998248313267        3.96648112056814
Au           8.62206976950790       32.28090526376474        6.56486060230614
Au           9.16305284739268       27.20459757419137        3.41253972079143
Au          10.19203749529045       24.59410087367725        3.06368366744940
Au          10.62929359039313       30.02079609518366        1.88156986371853
Au           7.18885605803565       30.30796987766537        2.64041874208068
Au           9.98085612697655       25.53421186258415        5.61930910018611
Au          12.02092141870015       26.66527717960764        3.92109108749431
Au          14.28154985678974       30.77439435242389        6.32190447668094
Au          11.26656690936849       33.08287981505293        3.36415636510081
Au          11.45328873137910       31.22945546453803        6.16830646738198
Au          10.63040743244373       34.67311507934276        6.38264897325088
Au          12.86503866168084       32.24143070822312        8.49905556674949
Au          13.10582671062070       33.28517008145764        5.77561500652785
Au           8.44627967475930       34.54807608327196        8.31830645252631
S            9.81148171928694       34.78076314097808        4.18478923088489
S            5.96999745913326       32.13872531306646        3.51924584967767
S            8.62062570041017       28.77702376629647        1.60614470936893
S           12.52180059123200       31.39108319123372        2.32662922461664
S           16.65046905762691       30.15611890650492        6.52813306054873
S           17.03795773221891       25.52340849013506        5.73702734448351
S           10.22011368808637       21.25733618375290        5.49098636736854
S            6.47319753427820       24.02085537459302        4.66863121053398
S           13.12754386338517       24.32543423571990        3.43339176868194
S            4.30128294600233       30.29673066213251        7.49171231476298
P            8.01389667400749       36.84508198464410        9.12649608325735
P           14.74688854723956       34.97345907010710        5.49167528572426
P            3.22600449542172       28.24959618874466        3.42297971931614
P           15.64806411395587       27.39070698971770        1.58551356382650
P            9.21189115153530       23.73287505690594        1.07515628209932
P           15.04761019804854       21.00457448007036        5.42360922978025
C            9.32222227660697       37.66677933762300       10.10662332977521
C            9.44977421062597       37.33008017903202       11.45873598385664
H            8.75900593945258       36.62820313783123       11.91021723347460
C           10.44852233169295       37.88929302738327       12.23852555765271
H           10.52265641244623       37.62307090015490       13.28672265777941
C           11.34380508101003       38.79087961426773       11.68191465662078
H           12.12183103214903       39.23384207097448       12.29257754254879
C           11.23924555480887       39.11993205671342       10.33801680147567
H           11.93753086129057       39.82021586460733        9.89353546859703
C           10.24067460144573       38.56101592422261        9.55559485830303
H           10.17064761553696       38.84293791950116        8.51174318642750
C            6.62929673959177       36.92481157778823       10.30785090116859
C            6.36725374568605       38.06344730455794       11.07810466113875
H            6.94535683771073       38.96703179494091       10.91953572520574
C            5.38861693398516       38.03757295906473       12.05894385201976
H            5.19465839284136       38.92803265216683       12.64628892050005
C            4.67510902517280       36.87170719339046       12.30708976905749
H            3.92916571005329       36.84803041984787       13.09303577770857
C            4.92256197463329       35.73831267342883       11.54733160692581
H            4.38100887935603       34.81809260649613       11.73397604337292
C            5.87972022098787       35.77380683869502       10.54563373593007
H            6.05503011804647       34.89249406355365        9.94242765149925
C            7.64914083379616       38.06868772654141        7.82875925709001
C            8.56938060470855       38.19337634078332        6.78285079244208
H            9.43719084787948       37.54322718183686        6.75008257651810
C            8.37348490501307       39.12583745812094        5.77690800664289
H            9.10645275769040       39.22530776932327        4.98437578509163
C            7.23215408122519       39.91742196345236        5.77768079700748
H            7.07156326870256       40.63965797293923        4.98561266838641
C            6.28935772797495       39.76834834384632        6.78537376787983
H            5.38783276535013       40.37067634090169        6.77948746355065
C            6.49801886211082       38.85620897185490        7.80933770118305
H            5.76135397337747       38.75802090433835        8.59851664296513
C           14.02680841036087       36.61791143010071        5.22169132804860
C           14.14472901216486       37.32029458978082        4.02260138847488
H           14.77978488627316       36.93747768017200        3.23165159348466
C           13.44930919776361       38.50657771232408        3.83540265977923
H           13.54726594081673       39.04323235286702        2.89840644504169
C           12.62712021334729       39.00260912596016        4.83729167322695
H           12.08143355152190       39.92701175669176        4.68535486891883
C           12.49907847638328       38.30708909139108        6.03332723346660
H           11.85528057490245       38.68685091254424        6.81873657170891
C           13.18660792040403       37.12076942406568        6.22131743267861
H           13.06094241748842       36.56391307841765        7.14438465616776
C           15.78419894519713       35.17946540630962        6.97487165709568
C           16.02508905831180       34.05961947404794        7.77359451084997
H           15.63129340354964       33.09595192535795        7.47544637349887
C           16.75612981948548       34.16331235998126        8.94500941868677
H           16.91846932738398       33.28372978959923        9.55798006130675
C           17.26920871284700       35.39324540953708        9.33311492367567
H           17.83417620753458       35.48093202052036       10.25416019718540
C           17.04911396912985       36.51275203607007        8.54210744153387
H           17.44634666767502       37.47584207036661        8.84255373398697
C           16.30919606570235       36.41119535239695        7.37288033335855
H           16.13003814704679       37.29552851162047        6.77172666076766
C           15.90569919210829       34.69239968947026        4.12021290057854
C           15.54402955271868       33.77142869111174        3.13463171669361
H           14.59339022085864       33.25347938170076        3.20289041023168
C           16.38955512655259       33.51015643491339        2.06851428280047
H           16.09356393651310       32.79537250264349        1.30903148841682
C           17.61355509233940       34.15931145466436        1.98006281210340
H           18.27708832336145       33.95732942119094        1.14677445320834
C           17.98939091725251       35.06715080575007        2.96215762670401
H           18.94793865629629       35.56980070163853        2.89824412000938
C           17.14305469745528       35.33418653656589        4.02665741268932
H           17.44417967326640       36.04132217490334        4.79177788319997
C            1.72763055051177       29.01064727167715        4.12713008908483
C            1.65609724207391       29.22798618033985        5.50338451391909
H            2.51883018186720       29.03020241556288        6.13121920745865
C            0.48968588406745       29.70856188208931        6.07801834643662
H            0.44405782654950       29.87171941075387        7.14810052219553
C           -0.62195352202965       29.97139129954712        5.29030793968726
H           -1.53824988892740       30.33073091540897        5.74452377521001
C           -0.55238097221001       29.78517378885649        3.91538998479214
H           -1.41236975963543       30.00280891176460        3.29219021279196
C            0.61579815861988       29.31452796575386        3.33551113093392
H            0.66690882844228       29.18610690213643        2.26005398370785
C            3.27152741158396       28.89751126442224        1.72390281548255
C            3.64058825707127       30.23609186001463        1.55885181710330
H            3.82760074355462       30.85363702878013        2.43057460560933
C            3.78326704064575       30.77853134140131        0.29314739536308
H            4.07390348536590       31.81690862474213        0.18251028664163
C            3.56513984354628       29.98921369858756       -0.82901431019295
H            3.68442559617156       30.40951336020263       -1.82096297978569
C            3.19785245899544       28.65917336164999       -0.67710317025648
H            3.02385584682733       28.03999555333934       -1.54992544474850
C            3.05238823361462       28.11342263341933        0.59090950001832
H            2.76782066211671       27.07295191955860        0.69803618359131
C            2.74029737898062       26.50227906107372        3.24020863557891
C            1.42848535497413       26.08262022714873        3.00107525970842
H            0.63115539776314       26.81139564311138        2.90997223831344
C            1.13401094932505       24.73232834501813        2.88555530221188
H            0.11136218766880       24.42261778474638        2.70126788306561
C            2.13833921673893       23.77978515610974        3.00692554698462
H            1.90037666539807       22.72588334386020        2.92012887808916
C            3.44260821814286       24.18436466987879        3.24787886440306
H            4.24257164429033       23.46040598547588        3.36127188970617
C            3.73491536071521       25.53319902012562        3.36634839508157
H            4.75293959013842       25.83601925784566        3.57444954186093
C           14.17963567219139       27.64215779164032        0.55116598809572
C           13.14703883742345       26.70220783579881        0.65582560479954
H           13.31226441677626       25.78793358213838        1.21575727761854
C           11.91720563656925       26.93741921464933        0.06737555351318
H           11.12306455717767       26.20623351838425        0.16631719737782
C           11.69414595302416       28.11486907997561       -0.63613690514187
H           10.72929212778802       28.29886799732716       -1.09294596222725
C           12.71275260318449       29.05215846252011       -0.74919736753835
H           12.54404451419723       29.97307940426361       -1.29492305451761
C           13.94482009918790       28.82366764757383       -0.15238886292032
H           14.72440907364494       29.57322000114699       -0.22714752684161
C           16.87332578963490       28.60526327871333        1.01560341966030
C           17.47555215538141       28.53919327309918       -0.24310938893942
H           17.21190406173851       27.73876578981943       -0.92585026554827
C           18.40900215414979       29.49203811334228       -0.61910657889483
H           18.87014902056679       29.43612846253398       -1.59877822471078
C           18.75757177923888       30.51319457061925        0.25613063411891
H           19.49218648601030       31.25329721773243       -0.04034027066656
C           18.16922144051859       30.58226046161836        1.51137973220909
H           18.44452614611666       31.37173695767995        2.20120171001017
C           17.23014691969187       29.63503927557068        1.88753381818574
H           16.76972980928248       29.68874104484335        2.86800932115800
C           16.30133829219634       25.75829500845254        1.11109511638174
C           15.93671475942438       25.08932522168184       -0.05796300316816
H           15.27472225119255       25.56700261566136       -0.77128939577377
C           16.41317683339464       23.81063748027385       -0.31056438912968
H           16.12904663902540       23.30286959426266       -1.22551190051712
C           17.25223107934196       23.18236954056498        0.60032421197257
H           17.61361067036552       22.17925270082539        0.40438623878637
C           17.62922268107057       23.84399308910873        1.76201089068636
H           18.28832363263396       23.36162116430852        2.47502530145293
C           17.15922213639091       25.12263433627070        2.01357089768104
H           17.45497963490105       25.63118315995689        2.92427611670600
C            8.08491162641503       24.98440633578273        0.40268805642971
C            7.00837312208050       25.38603143008006        1.20335120655093
H            6.81553969160708       24.87752184510359        2.14312390746051
C            6.19735601429439       26.43702037927584        0.81175138208853
H            5.36811111329808       26.74104221416316        1.44031323702807
C            6.45640644057246       27.11771216940004       -0.37042150697027
H            5.82943538061862       27.95135689055796       -0.66484016652957
C            7.52803953632583       26.73640850350833       -1.16416402542517
H            7.74194183499417       27.27071256639199       -2.08290389074550
C            8.33933110146417       25.67826158938019       -0.78116147043390
H            9.17703848359785       25.39380676964144       -1.40758342798182
C            8.19300965034095       22.25040262169153        1.34442470881139
C            6.84346143037094       22.15264881682303        1.00678411076353
H            6.35449918348020       22.96253947767800        0.47799684434528
C            6.11648160211120       21.02251287176027        1.35194824016373
H            5.06553633238587       20.96272230825268        1.09198479619262
C            6.72541046804038       19.97709297766136        2.03153346237012
H            6.15063982886250       19.10070408152670        2.30790938523935
C            8.07258422128817       20.05794789546308        2.36027178088900
H            8.55624495953500       19.24671016094775        2.89207863755335
C            8.79867318089938       21.18812009232153        2.02322887628414
H            9.84730606936474       21.25448820658064        2.29161516899375
C           10.32206306283595       23.28647999519216       -0.29286161217238
C            9.84021977377818       22.77701054393028       -1.50165832425745
H            8.77707109470862       22.60257318816483       -1.62644305943436
C           10.71474704126117       22.49478132130902       -2.53874686245487
H           10.33268395309991       22.09972068436797       -3.47327477935652
C           12.07617529538510       22.72534983388963       -2.38543898449034
H           12.75697367200405       22.51632171099054       -3.20275472115072
C           12.56363699804633       23.21879474641673       -1.18377502712938
H           13.62502668624648       23.40035540067889       -1.06165208021615
C           11.69395190480860       23.48573900791618       -0.13721620141468
H           12.08063961963661       23.84647061965679        0.81048262026055
C           14.26038145480155       20.76234579235028        3.79802748903830
C           14.71732382479528       21.49953221735759        2.70166731907734
H           15.58986537436886       22.13505703628184        2.80127816804098
C           14.06389547420324       21.42999198964587        1.48286775741016
H           14.44252113128386       22.00206732421388        0.64383645472119
C           12.92986150791834       20.64278796926831        1.33982736768656
H           12.41547750519847       20.59687026804818        0.38694562203160
C           12.45499726966194       19.92100983644170        2.42611479290218
H           11.56944651394201       19.30388781098957        2.32570267543897
C           13.11128451163474       19.98200486687993        3.64631422012361
H           12.72588795738957       19.41322484105381        4.48415835025767
C           14.84134054859710       19.37871548782558        6.21902612895533
C           13.62324433692776       19.13225840630262        6.85987677933043
H           12.86825004623280       19.91045191000927        6.89441952082475
C           13.37343659530563       17.90520732337096        7.45239813208075
H           12.41889045510508       17.72163980876367        7.93121723768661
C           14.34648913738728       16.91510994351709        7.43742664383844
H           14.15423772610100       15.95707952902552        7.90651768902826
C           15.56824957794240       17.15866722080139        6.82541949741754
H           16.33486383220160       16.39203123952254        6.81806343752282
C           15.81599939444837       18.38113975070277        6.21883308187489
H           16.77638768896565       18.55897044275250        5.74879605079929
C           16.80656423662828       21.14501606402384        4.97644126083702
C           17.40719296516710       20.36111915359030        3.98593045350684
H           16.82952871919229       19.59988565193580        3.47366643565866
C           18.73286228137001       20.56795439228695        3.63811125028337
H           19.18753366545045       19.95474754089422        2.86820031574603
C           19.47414276206603       21.56532807034749        4.26046470767002
H           20.50659531493809       21.73115831215860        3.97522204846710
C           18.88730682293303       22.35107483962225        5.24251754969995
H           19.45073085691827       23.14204062401788        5.72357081134439
C           17.56528940439090       22.13531255148595        5.59920011496588
H           17.10704556015244       22.75806132610816        6.35739352999661
Au          12.49117630030238       29.36546762351902        8.28505662610666
Au          13.87155607764402       25.21190256634875        8.19955554011210
Au          15.15292591433440       27.67527203007883        8.35548274003730
Au          11.08805851567975       31.07091514455261       10.39828377653738
Au          10.24641151997480       28.30997056804545       10.23574588051508
Au           8.66621103802081       30.53425192635731       11.67579794065241
Au           8.25824319097298       26.88386704543628       11.99991150921782
Au           9.47786974682507       25.43362777484974        9.76101346457470
Au           5.98890450424776       23.99509462083818        6.99445920579565
Au           7.72396004962025       22.63443507185921        9.86758202986637
Au           8.98671572458743       24.16608253921522       12.07643767235795
Au          11.23057010391779       22.64827355581791       11.16361306859498
Au          13.39809221527968       22.53439803490502        9.28505493830099
Au          14.58496655519889       24.46514691038554       11.20586123135574
Au          16.77232721304811       25.21128654303341        8.06017460242624
Au          16.35974799606185       27.31637753710834       10.91219676933324
Au          13.95802930214935       30.45858821351597       10.60636431779791
Au          12.82997737998847       32.94533031427824       11.32646511189840
Au          10.52296969027778       34.30883063642698       10.29796431249805
Au           7.34660142559908       33.12962620298391       11.92638495678159
Au           7.98105776493694       31.91099739382415        9.32787248307790
Au          12.10728744964802       28.90436029640873       12.48037069114656
Au          13.85362336299955       26.70797727104341       12.82914728028645
Au           8.93518342858140       29.04273095769900       14.01128284040614
Au          10.40668878276138       32.16573258223635       13.25236195624324
Au          13.14495170399100       27.36094108457209       10.27359653220799
Au          11.14540956941273       26.15967159984740       11.97168156080326
Au           6.45631779951665       26.25660372814794        9.57085026436484
Au           5.96469740266552       30.02189714639742       12.52860196602868
Au           7.47637363037242       28.93330205292532        9.72455562240950
Au           4.90537054924821       31.36798467410111        9.51014315496705
Au           5.89417166675893       28.21690516023935        7.39381255146263
Au           4.86982389507199       28.53006429894875       10.11709732955108
Au           6.10573963390374       33.19698684889588        7.57448971457745
S            5.22172506016416       32.13094993063061       11.70799793743498
S            9.43059819277800       34.13666284001069       12.37349759211628
S           11.01669364551809       30.16035240210820       14.28666792289281
S            6.80226088240411       28.08895278539006       13.56606760706747
S            5.80748842159686       23.89586963715825        9.36460648050444
S            9.62568449559417       21.24384953964501       10.15594819233303
S           16.72915594092119       25.01526305338955       10.40197603289914
S           16.20946834551251       29.64200155996863       11.22411850234773
S           12.61839254247728       24.03136395297545       12.45954746902252
S           11.86022532070653       34.66087800577471        8.40108721228353
P            4.33272330801548       34.72002112014708        6.76634984036064
P            2.58720129604378       27.95314183998630       10.40105343915490
P           14.17083562886726       34.56850828415815       12.46983298571916
P            8.70357004620543       23.38118791271845       14.30729220456179
P           15.08955077931048       27.12622840256504       14.81765771867881
P           14.53429780421387       20.70811010551263       10.46931516761655
C            2.96698674881232       33.99784132163798        5.78616007515812
C            3.19486913923504       33.71903496244285        4.43405766995264
H            4.14812132294834       33.96631621167745        3.98262739717106
C            2.21124033836386       33.13371042905356        3.65421327668175
H            2.40478269477868       32.93640423114005        2.60602491621021
C            0.98277264920132       32.80916689355595        4.21075975778123
H            0.21017358344944       32.35686160776332        3.60005520759959
C            0.75001588336131       33.06423992414364        5.55464657583715
H           -0.20561442012057       32.80964953277328        5.99907643603967
C            1.73329804773348       33.64956308655005        6.33712310833564
H            1.52410648053650       33.85116644582929        7.38096486278400
C            4.95603650425715       35.95894512277808        5.58498774730561
C            4.10101231467620       36.75530022470029        4.81479144830668
H            3.02943767861979       36.70656400871096        4.97342706890661
C            4.61277234060401       37.58982610133567        3.83391761880371
H            3.93862547263084       38.20311212305276        3.24661941269958
C            5.97918244539252       37.62463993437833        3.58567462354005
H            6.37268069016374       38.25875753641295        2.79969929404570
C            6.83696303590838       36.84353724372399        4.34537254661064
H            7.90466251966253       36.85230108604015        4.15865898770761
C            6.32761678569918       36.03242456526601        5.34710700460398
H            7.00317039318117       35.43985805654786        5.95026250736297
C            3.45538317053497       35.64772159786335        8.06405189746976
C            2.88723554129637       34.91311241700537        9.10993491238919
H            3.01636600767488       33.83649055292707        9.14269936437965
C            2.17761633273365       35.54899137365103       10.11585703139102
H            1.72495776739710       34.96395526318284       10.90836981455702
C            2.06275147100539       36.93320509761612       10.11508573519435
H            1.51754040788585       37.43339671545425       10.90713352383197
C            2.66328813548494       37.67515601220952        9.10741621838909
H            2.59241559168202       38.75706341410626        9.11330102520784
C            3.34893439067872       37.03838367296014        8.08347733574518
H            3.80233278197704       37.62726556370907        7.29432128653972
C            1.52306506812426       29.39894549003002       10.67103980765216
C            0.85579398999199       29.64798434077196       11.87011911962935
H            0.86980146047065       28.90659438295773       12.66106230975179
C            0.17611555150743       30.84335650085607       12.05731401909393
H           -0.33764062133657       31.02682917080403       12.99430274271081
C            0.15762480588452       31.80341604055217       11.05543183091461
H           -0.37011817133119       32.73817906916886       11.20736644132039
C            0.82401245548644       31.56657299048584        9.85940644548905
H            0.81702259346253       32.31400449169582        9.07400180497607
C            1.50766782358479       30.37801609948143        9.67142108213815
H            2.05277317007508       30.20843791246563        8.74836316591099
C            1.89013406914448       27.15776437002896        8.91788552381983
C            2.73950140158470       26.38919603933724        8.11918746409942
H            3.77096390282611       26.24841593690331        8.41733491820926
C            2.28416976777496       25.80789533631906        6.94779965710161
H            2.96473504810417       25.22748910402508        6.33484611403594
C            0.96247270211193       25.97850559698395        6.55969917305824
H            0.60404137981788       25.53303089316617        5.63867765871731
C            0.10300490803165       26.72890072968040        7.35068041103436
H           -0.92967470817645       26.86641922166690        7.05023740958016
C            0.56092387870621       27.31895605017039        8.51988023521754
H           -0.11534720099915       27.91630033660594        9.12101727121274
C            2.25127755358177       26.80905849271418       11.77253408983026
C            3.22973468672088       26.66184244556264       12.75808462334430
H            4.15358249269563       27.22618789958810       12.68978865969977
C            3.03331691685341       25.79896079733983       13.82421557104525
H            3.80036379699155       25.69794936972029       14.58367363769319
C            1.85917002356517       25.06346756967781       13.91270827106388
H            1.70238346606752       24.38783936701209       14.74600688399054
C            0.88500329237323       25.19184835129294       12.93064243595103
H           -0.02954697748620       24.61300108911761       12.99458811745538
C            1.07683474513856       26.05831660240863       11.86613029849189
H            0.31384700566045       26.15106190990463       11.10103245554329
C           14.26092413250785       36.24665960540130       11.76567520895320
C           14.10840954453760       36.41726848643777       10.38942598328230
H           13.84827447139380       35.57122853652752        9.76161272416637
C           14.27543610808587       37.66768648244835        9.81476985895728
H           14.15689962259061       37.78877211161806        8.74469240384176
C           14.60371813321397       38.76180558622526       10.60245246335375
H           14.75068583636020       39.73500033703672       10.14821846266844
C           14.73025131150731       38.60845832810430       11.97736752569001
H           14.97182280258544       39.46204836062685       12.60054562884628
C           14.55373170893496       37.36147642485842       12.55727040956979
H           14.63941950402111       37.25301503639393       13.63272672440913
C           13.58690428475609       34.85300234486913       14.16889528954014
C           12.24309993333900       35.20258537560149       14.33390429111356
H           11.61481134005824       35.34939104672332       13.46216048719551
C           11.70192983873031       35.35015537426361       15.59959110696008
H           10.65732702797179       35.61756744667854       15.71019384375017
C           12.49452812959698       35.14440560072963       16.72177826468523