245
 energy: -368.894146230571 gnorm: 0.000755847047 xtb: 6.5.1 (579679a)
Au           3.12963921202028       11.96554254541943        4.38903425927447
Au           3.09125430812401       14.57866080198144        4.36298066407054
Au           3.00013057519712       13.16393182373744        1.86816857840994
Au           0.65894793305387       13.26487089321208        3.78464245926784
Au           1.81732089096247       13.26759549992502        6.52336494940063
Au           4.75583239688644       13.29840902135694        6.31140290317377
Au           5.46333579180201       13.36751223064402        3.44484701210747
P            3.30086845617071        9.61417555968977        4.48413377588258
P            2.96199814490981       16.93755790154310        4.34553646268449
P            3.04027486711908       13.61957486034389       -0.51339318478928
P           -1.67318700658375       12.97361206710939        3.16501590201768
P            0.39079113808369       13.41652342995755        8.45810335288603
P            6.16182122855722       13.23479492998823        8.31787048857766
P            7.83350760520877       13.07748940321057        3.05559720991765
C            4.17673455003548        8.83928589650657        3.08063169777470
C            4.09830761602598        9.45955155568412        1.83262320451301
H            3.52472077334948       10.37492001338209        1.72739141665424
C            4.75094628871105        8.93002399268205        0.73136232498327
H            4.68419456123220        9.42913360806674       -0.22861062807823
C            5.49092727852667        7.76242372422974        0.86043453753156
H            6.00335558107510        7.34565242675816        0.00104139915969
C            5.57534033469039        7.13236907023142        2.09518614044267
H            6.14806687453343        6.21795832347538        2.20060807506824
C            4.92725075159364        7.66727929697659        3.19901712405699
H            5.01610337996825        7.17520445686257        4.16086734846065
C            1.75698707924110        8.64900893607930        4.61165807724377
C            0.54298745175311        9.33045351680097        4.69705151783040
H            0.53714505424309       10.41530049771067        4.67109916699546
C           -0.65204860013574        8.63727933852266        4.81262098602294
H           -1.58682447905561        9.18047817452136        4.87952747491673
C           -0.64978493129809        7.25011914439031        4.84187411360740
H           -1.58361649775132        6.70753868071352        4.93377939926825
C            0.55145405015232        6.55919556678858        4.74847820215399
H            0.55766280609571        5.47530552487592        4.76605470321498
C            1.74615032097748        7.25153483653677        4.63281906618385
H            2.67841709223266        6.70295804301359        4.55832836078593
C            4.27304987860138        9.06663025027496        5.92136933547334
C            3.69576107237468        8.49150770013898        7.05451374715724
H            2.63310290942315        8.27641766990263        7.07055280493975
C            4.47394791921649        8.18317407858164        8.16124310493132
H            4.01407380653305        7.72693103688269        9.03062783336416
C            5.83500062872411        8.45482187641069        8.15611865392317
H            6.44233603177477        8.20416258573700        9.01808922637375
C            6.41537519854778        9.05228596490480        7.04389987887475
H            7.47570185258778        9.27848919474609        7.03756891203919
C            5.63995788494500        9.36321896309179        5.93999588684565
H            6.09599840381270        9.83471699558666        5.07563527445617
C            4.51460897420385       17.79876908630216        4.75785754281809
C            4.61244169591263       18.85312999123113        5.66670943018128
H            3.72412735954931       19.21873780875735        6.16894523755262
C            5.84230865619662       19.43951991953155        5.93162944765901
H            5.90513704581105       20.25621898377087        6.64180485015436
C            6.98545938275269       18.99117224389591        5.28493080877750
H            7.94378689509559       19.45394516901617        5.49039460444012
C            6.89838056521600       17.94725247906428        4.37248888762285
H            7.78670793218352       17.59472627752664        3.86123714732227
C            5.67500426153647       17.34892493798154        4.12187900725670
H            5.61316152196476       16.51923729908731        3.42439954726353
C            1.74838832264128       17.55381800408307        5.55340256261992
C            0.56463366812154       18.19303278572304        5.18291202033742
H            0.38277157538133       18.43109406499858        4.14090707413833
C           -0.38459255969942       18.52676490604056        6.13837365260366
H           -1.29992550409202       19.02227231024995        5.83474892076147
C           -0.16481134535325       18.23011681436769        7.47627570924574
H           -0.90717020219971       18.49151167587565        8.22136346933419
C            1.00668602052306       17.58684823057157        7.85689725191663
H            1.18250768178487       17.34732913224911        8.89929257018378
C            1.94818536645045       17.24016715188048        6.90228873297576
H            2.85007659565621       16.71632127580062        7.20153104428972
C            2.47280695044334       17.72537468397027        2.77457976357259
C            2.93803767356792       18.97993771540254        2.37429278530574
H            3.59627272954135       19.54465185000348        3.02476314671821
C            2.56710693562857       19.50789809333974        1.14680158487311
H            2.94027207466067       20.48036482375667        0.84636579581089
C            1.72333098928099       18.79636908163328        0.30458679981416
H            1.43714386967597       19.21047424285807       -0.65525797607716
C            1.25198092140568       17.54982748565904        0.69263426552583
H            0.59673123974617       16.98633887806321        0.03821613387170
C            1.63161950900253       17.01668208328832        1.91400277586531
H            1.28281338750668       16.03202375527266        2.20696796890571
C            4.07773356757602       15.09008844408321       -0.81964402945774
C            4.36986377573295       15.92142919069404        0.26236068243915
H            3.98086411945919       15.67095035477181        1.24223889682639
C            5.14827009379631       17.05676385984131        0.10052043254955
H            5.35985615067029       17.69131207774149        0.95408115218138
C            5.65097780921513       17.37641508367464       -1.15296953116510
H            6.26145278989779       18.26215881734637       -1.28502962705654
C            5.37061525973579       16.55597333449151       -2.23896819865365
H            5.76127389952861       16.80262263813637       -3.21964580804442
C            4.58914411698792       15.42209320136413       -2.07646838267107
H            4.38093807265211       14.78761680977171       -2.93069714721401
C            1.46374398850809       14.07795342021905       -1.30862658696337
C            1.29382376586609       14.19739492411792       -2.68976755649352
H            2.11936972583825       13.97892100176502       -3.35781453119353
C            0.07285824301606       14.59352286015126       -3.21342965402514
H           -0.04840680983862       14.67851056987791       -4.28733186952445
C           -0.99010227259703       14.88690026765590       -2.36902238666300
H           -1.94119224025212       15.20195514896844       -2.78246070339215
C           -0.83290009057516       14.77241987002730       -0.99473152308675
H           -1.65969890045105       14.99406576982283       -0.32924280419702
C            0.38342740754501       14.36209986303646       -0.47098657303429
H            0.50047436433315       14.25215316338817        0.60194106890531
C            3.78592014068505       12.35343059134840       -1.58030566618548
C            3.00890881007083       11.39358663466548       -2.23413411157431
H            1.92716278052210       11.47312001249219       -2.21774619126303
C            3.61047336811435       10.34070505995175       -2.90645158567334
H            2.99591417227677        9.60817264301831       -3.41741279878403
C            4.99403171422058       10.21983933726841       -2.92231587174777
H            5.46167357865857        9.39535576152159       -3.44778029877973
C            5.77649614652859       11.15626247714536       -2.25739596239987
H            6.85698445366429       11.06401846348671       -2.25854438505943
C            5.17780794677785       12.20959009593868       -1.58617428987966
H            5.79486416260388       12.93133791537206       -1.06112860351464
C           -1.87339611872414       12.32611324419549        1.47379245850374
C           -2.94008054611445       12.64747920115699        0.63177594814740
H           -3.73395713647124       13.29445001206397        0.98809466882191
C           -2.98428640068575       12.15054000383068       -0.66282076788089
H           -3.81625614267330       12.40785030327020       -1.30847334329548
C           -1.96521683841641       11.33397113796018       -1.13465351238097
H           -1.99922307589996       10.95551686759735       -2.14973550395033
C           -0.89906728933708       11.00903600301520       -0.30630098617052
H           -0.09748999670734       10.37658733718773       -0.67132704047920
C           -0.85411956619632       11.50296676022752        0.98722786014026
H           -0.01612608008806       11.25833123474071        1.63153459602872
C           -2.66581588199866       11.84883431495973        4.20040785245655
C           -3.68485516000224       11.02483146226440        3.71941075795064
H           -3.93328873212092       11.03112865580753        2.66405536655517
C           -4.37881574560573       10.19268356392238        4.58567472518752
H           -5.16879962993494        9.55731003456739        4.20167594957365
C           -4.06549845569540       10.17025856261293        5.93844802552992
H           -4.61017228482746        9.51826307723109        6.61144009380107
C           -3.04687904945788       10.97915819975014        6.42573758428682
H           -2.78961348860610       10.96081385556605        7.47894478017050
C           -2.34997164313219       11.80690056272841        5.56067399059643
H           -1.54604013968752       12.43017206739011        5.93711574746114
C           -2.64159233823938       14.51664584853348        3.17161063992664
C           -3.99595124184145       14.59355747408974        3.50153604957343
H           -4.54665744295994       13.69079112305003        3.74068629411772
C           -4.63948026174539       15.82188600960761        3.53604636377034
H           -5.69112327909892       15.86969734530114        3.79497647237835
C           -3.94189501511625       16.98688145141579        3.24545482967180
H           -4.44743765331545       17.94501452833876        3.27851682897121
C           -2.59309453963663       16.92253450520775        2.91882748759571
H           -2.04084943624205       17.82872926237026        2.69626132205489
C           -1.94939905599301       15.69649848412894        2.88727533096935
H           -0.89218404555330       15.64555239756785        2.65030126835789
C           -1.25745682938162       14.07989879741719        8.04937320481800
C           -2.44752553361413       13.66236737875098        8.64810320510114
H           -2.42490203746961       12.91520803357224        9.43361008278160
C           -3.66186501040116       14.19087987181659        8.23421841033584
H           -4.58040449316615       13.85438470583612        8.70150436301823
C           -3.70424992472360       15.14373416703438        7.22534892045215
H           -4.65511714528281       15.55117172228082        6.90151577874768
C           -2.52607751739200       15.56924151745038        6.62600565669987
H           -2.55075207101398       16.31312279122144        5.83760012490490
C           -1.31427903660309       15.03414809543809        7.02968554999692
H           -0.39550152807375       15.35117893599678        6.54856995684784
C            0.03904930847052       11.79147351479648        9.19811804225401
C           -0.16590832447890       11.55858661224673       10.55857560519014
H           -0.15035432810172       12.38656366371973       11.25827585860603
C           -0.37803418914330       10.26853764184771       11.02353376421522
H           -0.53510171353950       10.09925081569222       12.08274940609394
C           -0.38651162120257        9.19717469264200       10.14040908729061
H           -0.54931378455137        8.19107064886051       10.50913449191269
C           -0.17749330115984        9.41616292074146        8.78449163781091
H           -0.17538605195696        8.58412198137432        8.08898166979894
C            0.03900405017543       10.70296332322331        8.32019645405733
H            0.22262359286411       10.87197741468433        7.26417755915973
C            0.94877047368383       14.47916084982919        9.82882640394065
C            0.09809531834694       15.02524620651047       10.79263912381640
H           -0.96393240157185       14.80844389862037       10.76246772505370
C            0.60370589347486       15.85660856858805       11.78059842144426
H           -0.06455827857721       16.27349737840966       12.52548299353283
C            1.95824838843675       16.16212769383296       11.81414498595343
H            2.34771073881710       16.81692914496358       12.58506505569688
C            2.81045952680784       15.63550546393793       10.85299778469169
H            3.86704573842854       15.87868046149724       10.86526855117244
C            2.30710122875257       14.80105498770498        9.86791555155766
H            2.97068401433532       14.39460645753234        9.11212342293148
C            7.75321890380318       12.38254200402927        8.58409121917909
C            8.90902326330816       12.91882242679503        8.00630002984561
H            8.85933889639678       13.87410083621674        7.49517412556250
C           10.11820915087799       12.24760183367469        8.08912522125021
H           11.00731967451269       12.68406666993513        7.64804162200494
C           10.18979420144326       11.01859687455151        8.73384545316503
H           11.13464861481373       10.49148979292194        8.79638942661615
C            9.04744488488839       10.47216571901688        9.30310240007179
H            9.09778807625432        9.51576191747010        9.81121760996387
C            7.83779468142053       11.14680768103004        9.22889203674094
H            6.95297041257180       10.71435655935188        9.68199464644211
C            5.07579357390595       12.52539775903360        9.60037536513879
C            4.19725449222294       11.51465803366333        9.20191568809907
H            4.21326977273075       11.17257768314636        8.17348833127602
C            3.30592741903566       10.95192858650831       10.10058538562682
H            2.63482850954624       10.16618750219510        9.77258075954660
C            3.26872583343569       11.40368116915522       11.41263600653384
H            2.56195134392010       10.97528405317827       12.11405654548387
C            4.13450558364158       12.40939644325465       11.82126927013336
H            4.10635362134334       12.76675871497095       12.84440770349692
C            5.03582865743943       12.96447867828973       10.92494520258326
H            5.70598740212248       13.75031045521725       11.25530858567181
C            6.47053621056614       14.92749064611259        8.91055099053922
C            7.45107597465940       15.26364619660677        9.84737259911782
H            8.09149210705284       14.49224461907591       10.25981952276504
C            7.61713892885154       16.58108949179612       10.24733484010715
H            8.38253085229981       16.82880537260641       10.97401147741996
C            6.80822601356773       17.58011161959524        9.72247637013139
H            6.94063329392560       18.60862513053087       10.03777906571937
C            5.83316204124458       17.25892343484267        8.78755567933299
H            5.20320400372466       18.03417837217816        8.36634409226271
C            5.67211283258624       15.94431421473617        8.38213936371921
H            4.92177190592598       15.69533850037053        7.63927939132112
C            8.41330340743955       13.25079325965184        1.33828830136944
C            9.39481204484164       12.44967027493535        0.75236570364073
H            9.89649821084180       11.69056616678996        1.34176104171865
C            9.72665429436063       12.61419018097333       -0.58447041044562
H           10.48797444597868       11.98367335818000       -1.02960881369004
C            9.08863119780233       13.57978864339521       -1.35088830967054
H            9.34906396069753       13.70372190983521       -2.39568340424665
C            8.11256663926238       14.38519137993980       -0.77723878189419
H            7.61163860158393       15.14174939216315       -1.37097133141228
C            7.77297741393214       14.21652533768617        0.55542651186268
H            6.99844861071849       14.83491398631341        0.99847197748241
C            8.86277878988197       14.24039473387250        4.01108700703357
C           10.22011977515554       14.44967073115499        3.75528113547661
H           10.70405256858794       13.91546021972137        2.94500751490025
C           10.95023482961351       15.33714796389708        4.53053835064778
H           12.00333859732191       15.49057901091080        4.32408265022223
C           10.33846270798996       16.02967943659180        5.56773545302836
H           10.91277360021122       16.72336609953077        6.17084429116163
C            8.98826608624583       15.83595494450495        5.82684512502965
H            8.49928083805663       16.38253915770028        6.62552126278770
C            8.25736989973478       14.94827802735043        5.05054523217300
H            7.20132453141362       14.80302619658349        5.24953467602718
C            8.42359771630934       11.44340653130202        3.59028210981320
C            9.16529227451883       11.25476543502977        4.75781437887720
H            9.50785594870677       12.11250170012702        5.32518923552734
C            9.47050445950881        9.97681183780813        5.20178042561332
H           10.05141195909349        9.84972559069337        6.10872487589455
C            9.03593981605355        8.86759107203006        4.48934904357715
H            9.27533892684916        7.86910831327689        4.83613034799543
C            8.28565352728448        9.04228954639350        3.33283836364075
H            7.93614584609309        8.18008853356356        2.77641367625150
C            7.97099484513499       10.31724744874942        2.89245075671803
H            7.36852929054620       10.44590652394412        1.99885526886050
