268
 energy: -412.018033716477 gnorm: 0.000548200455 xtb: 6.5.1 (579679a)
Au           9.83678860830220       12.86859942153108        7.95333730078056
Au          12.00228435137726       14.28935017931125        7.07698753382693
Au          12.84669940896410       14.13594865233868        4.37270165346899
Au          14.35121506925623       15.50647779919621        6.45475766641794
Au          13.69421220524434       14.90942240365307        9.13568823884275
Au          12.29184318183148       12.39800087904031        9.18813902064825
Au          13.82788533598609       12.48462164753176        6.65500023653447
Au          11.03677521791374       12.27737160279446        5.43868304328718
C            6.51912067647616       11.63447266507300        7.11393862256882
C            6.78654207018290       11.92842053265262        5.77381291506023
H            7.57910326051889       12.62772428543446        5.52828424893786
C            6.05182217845654       11.33754318276351        4.75921322517318
H            6.26701904231587       11.58297629523145        3.72544457470856
C            5.04868865448408       10.42801626176342        5.06762605054010
H            4.47530176772673        9.96276625904359        4.27459279561266
C            4.78917397474623       10.11149375353530        6.39366048703469
H            4.01316842977120        9.39600860307340        6.63977623502780
C            5.51812797174458       10.70837374697665        7.41164085489491
H            5.30485918104442       10.45304628069284        8.44315116066226
C            7.08105179548248       11.66243783579753        9.94927838484117
C            5.87764984937879       11.89357533365123       10.62092475815475
H            5.16264228265368       12.60167974367727       10.21713557775535
C            5.59920885960532       11.22630222382993       11.80372759145243
H            4.66387781234099       11.41327172698626       12.31835992170675
C            6.51147617210261       10.31920832293278       12.32685550237219
H            6.28834300415881        9.79605212287905       13.24930395966149
C            7.71344250374881       10.08890313343085       11.67151235303984
H            8.43329197161784        9.38952178860317       12.08161336716769
C            7.99974098139681       10.76412971553251       10.49566512810482
H            8.94858545237903       10.60310334528645        9.99410425015331
C            6.71181393270330       14.09060730495641        8.52082430829236
C            5.50014530008032       14.55505855628479        7.93305791859346
H            4.85284245889435       13.97625575416864        7.28784036126638
C            5.22818483316775       15.84452246875707        8.44584299449518
H            4.33511483837331       16.42445898100060        8.25343753337995
C            6.26728923457939       16.19405152762931        9.34242644578187
H            6.30518352293848       17.08494358304219        9.95524261056498
C            7.18836337814533       15.12405054101758        9.38185129544585
H            8.04643805480342       15.04583246551108       10.03645144646620
C            8.90865348458509       16.43251615762312        6.76996150191208
C            8.02073219816931       17.54936539991713        6.85764570030622
H            8.21636456507638       18.46585281938289        7.39819577619762
C            6.92027599049805       17.30709180157596        6.00631477617827
H            6.12130228032137       18.00508405326893        5.79363362429216
C            7.10080907882790       16.04114209157077        5.39751017722627
H            6.46799526430864       15.60601351467442        4.63552282282340
C            8.31954557870610       15.50228284052691        5.86430287822392
H            8.79066850798713       14.59340086972287        5.51393971251876
C           10.49138515620577       16.91132403999794        9.12373124848400
C           10.50860586175465       15.98348555417113       10.16708017280615
H           10.58797025265018       14.92647031574349        9.93969633548020
C           10.42598702625807       16.39411014143333       11.48863060490077
H           10.43352144799700       15.65710863877819       12.28358058976767
C           10.33548453578119       17.74559816802697       11.79000873965082
H           10.28116749537905       18.07030195756266       12.82233752016654
C           10.31659047762569       18.67950987602064       10.76323552183292
H           10.24723352520140       19.73661211416196       10.99225749891665
C           10.38874859063569       18.26862810424979        9.44119606871934
H           10.37347359854758       19.01023987463637        8.65096540415816
C           11.43139619076235       17.70507335695962        6.56160044788678
C           12.56261238174859       18.28071399890385        7.14890882945904
H           12.88079001644302       17.95564714111180        8.13362180284573
C           13.26565695426418       19.28007585065324        6.49718369181917
H           14.12632797375486       19.73114743908723        6.97706871997377
C           12.86759124978232       19.70245699553157        5.23522447993786
H           13.42026738970281       20.48142824381492        4.72341566491839
C           11.75928179069498       19.12264908298592        4.63313844064862
H           11.44395898074327       19.44896639996470        3.64875087389676
C           11.04522666471555       18.13034458053733        5.28982684739778
H           10.17606537500020       17.68930628223585        4.81476923684304
C           12.38566785562401       15.46379132007181        1.14643693651684
C           11.68653937267111       16.41957435471698        1.88606432023936
H           11.80055748216015       16.44552831843497        2.96532138346965
C           10.84801081848654       17.32539457274681        1.25633326989271
H           10.30905007137013       18.06077866826576        1.84296217156460
C           10.69363948436558       17.28430243299948       -0.12269702026414
H           10.03655646682931       17.99067222469301       -0.61624702827536
C           11.37563185476894       16.33123458708509       -0.86754599152995
H           11.25135098630094       16.29211656242517       -1.94351242273551
C           12.21465722518078       15.42385105046950       -0.23978981846864
H           12.73449089058073       14.67471622865764       -0.82650854792294
C           13.36111743142238       12.78523746903606        1.04838520630958
C           12.22265358364236       11.99134319320025        1.21521369777930
H           11.44029543073456       12.31337741562253        1.89561425970106
C           12.08264245969208       10.80285400658450        0.51652693054451
H           11.19337421709801       10.19847895076617        0.65384418527463
C           13.08314904888896       10.38190262697077       -0.34950573772754
H           12.97617624586201        9.44827023821487       -0.88906759540630
C           14.21762232254095       11.16164887221912       -0.52309555220880
H           14.99926538859587       10.84192428232870       -1.20249141255772
C           14.35688014406621       12.35635076779067        0.16832909271281
H           15.24062475397148       12.96419714340022        0.01290368383717
C           15.14487555409206       14.89968238478042        1.65538362469352
C           15.60746432254538       15.60527567157834        0.50364166590793
H           14.99051618711901       15.93840276223210       -0.32023268382704
C           17.01736774001014       15.68094796204122        0.56908190053018
H           17.66365521612716       16.08524491654014       -0.19874674628107
C           17.44208070339045       15.03696731196360        1.75647193194032
H           18.46767481655769       14.86219352395961        2.05361584767508
C           16.29479107175707       14.56171538361952        2.43017346169600
H           16.28813958658779       13.96046287378460        3.32947136128726
C           16.17084080116489       17.44544335191708        4.08496190773344
C           14.93350343620989       17.70747402419440        3.42406004999752
H           13.95406504440265       17.47758013460211        3.82247764452918
C           15.20439898780758       18.42791002134386        2.23957518907709
H           14.46403437259553       18.84023141971782        1.56689408236418
C           16.60555102640151       18.61406062876571        2.15059478657834
H           17.12112927772588       19.19342809083842        1.39611111982269
C           17.20583913494520       18.00847770499727        3.27724979299351
H           18.25496468261586       18.05019370022457        3.53813262564303
C           17.77229935644103       15.72399900094618        5.75555629649820
C           17.60838639321341       14.33739085819944        5.71561753070854
H           16.60662133367112       13.92010990864944        5.70737215519547
C           18.70737464478672       13.49315688558464        5.69262018834520
H           18.56349919620663       12.41920349562300        5.65172336097843
C           19.98953094080684       14.02472602831356        5.72456490035012
H           20.85013650623948       13.36632125121865        5.71115890643480
C           20.16590876920285       15.40099163667997        5.77786030579708
H           21.16529726696616       15.81929813556454        5.80781143880737
C           19.06729536856257       16.24654071182466        5.79167899336283
H           19.21506539411736       17.31947665834552        5.83782356798060
C           16.79021907267152       18.22405358421639        6.72792423418024
C           17.28300173979412       18.01430239593459        8.01915026707723
H           17.41781471316240       16.99994799597505        8.37646885503452
C           17.61254450521850       19.08520908149519        8.83441802811429
H           18.00102593436286       18.90218523623024        9.82991345363022
C           17.44063932440639       20.38522729221359        8.37681878881107
H           17.69410716345939       21.22375065997610        9.01456377263580
C           16.94654080308743       20.60624252238400        7.09875489540757
H           16.81470622716254       21.61849531853516        6.73444434489541
C           16.62033709818800       19.53541413959921        6.27868567554380
H           16.24306419330151       19.72126168860092        5.27970535084288
C           14.37547023952700       17.47244840581759       11.42027415211964
C           14.55846173240611       18.39426245804652       10.38395301257401
H           15.02459141400360       18.07015305865313        9.45893943996679
C           14.16305695271705       19.71240211973781       10.53383096218005
H           14.31985924631775       20.41726035246028        9.72497178277239
C           13.56457933530250       20.12595749169911       11.71787043440002
H           13.25036041488989       21.15628369326706       11.83580062869615
C           13.36925481089148       19.21689802028099       12.74815460454278
H           12.90277239034602       19.53647509206644       13.67289626664848
C           13.76824831282003       17.89576392754680       12.60237883199244
H           13.60838085507802       17.19161415944216       13.41094022024612
C           16.63724508545193       15.80303609678895       10.87703575137412
C           17.22520756763624       15.00258155442359        9.89523946159741
H           16.59574712139774       14.36804324421293        9.28001001239514
C           18.59724738614539       15.02579206879327        9.69113531923164
H           19.03878423982503       14.41520098645844        8.91160985264546
C           19.39970249990683       15.84569710516116       10.47323169200315
H           20.47138874795357       15.86636848299964       10.31421591067565
C           18.82571238894100       16.64712484185220       11.45169906685713
H           19.44966142409677       17.29126611319322       12.06020073033079
C           17.45329814698699       16.63256109558985       11.65034918051674
H           17.00954605523283       17.27480027332055       12.40272210426830
C           14.57792906056745       14.89293399214390       12.64584935691096
C           15.47719650797434       14.72625358239516       13.74070232279468
H           16.48521231814955       15.11546626579970       13.79276939484999
C           14.78112853993354       14.08152552532056       14.78835252836060
H           15.16957121382279       13.89144616428614       15.78016914236301
C           13.45662390321774       13.83156604196984       14.35440032740054
H           12.65712113272371       13.41960607854443       14.95585518185689
C           13.33001554045331       14.32060096217042       13.03515333461246
H           12.42073146210888       14.35212129817958       12.44999361409736
C           14.21123094727483       11.27224414331693       11.96702425658055
C           15.34411259802109       11.90598975933166       11.37588151530638
H           15.39741029465044       12.26096719616174       10.35458401877154
C           16.41055950714383       11.86668178226676       12.30205159889220
H           17.42350798114609       12.19717761701442       12.11501351869803
C           15.95084727702736       11.21544057408736       13.47238107152856
H           16.55320170598614       10.96128467326487       14.33448721304256
C           14.59896547100771       10.85551018527021       13.27627048149323
H           13.99282683392461       10.27410831235357       13.95789467689732
C           11.37283781677179       11.11750302268919       12.31887110603894
C           10.55421859633157       12.24673173316194       12.24821289552011
H           10.68443518400691       12.94499680289039       11.42835919305899
C            9.57624114303605       12.47750629954155       13.20231567549667
H            8.95010511677057       13.35963566203808       13.13086703158436
C            9.39653798974595       11.57306292883807       14.24001952311958
H            8.63234766999103       11.74940408781054       14.98775688639455
C           10.19013215473641       10.43522756119431       14.31091286894782
H           10.04489716423377        9.72199730701331       15.11391210857451
C           11.17121104545988       10.20564651640764       13.35827095529453
H           11.78033675726215        9.31086086566029       13.41783841516972
C           12.76666560098266        9.13226446189994       10.78411591369434
C           13.98683754785797        8.45863792606320       10.69969624880256
H           14.91147227862418        8.99293326004774       10.88765274407451
C           14.02324156846716        7.10834327124655       10.38668119377017
H           14.97653970738301        6.59490133211408       10.33416965727122
C           12.84525437819227        6.41430029593816       10.14677102866452
H           12.87564296532011        5.35795692834846        9.90730753012038
C           11.62625392639895        7.07804901616433       10.21361747981925
H           10.70281247190473        6.54159085225540       10.02752094968638
C           11.58751293856444        8.42830736045566       10.52130958578830
H           10.63391490890383        8.94325895932280       10.57005992513072
C           16.41252917183496       10.35825656149142        7.86643056056442
C           17.16498872045778       11.45547751302709        8.29612050644739
H           17.03788492481334       12.41524424456489        7.80607924525557
C           18.07503093240770       11.32459214903693        9.33276883517102
H           18.66357341305425       12.17915165018134        9.64555700936070
C           18.22998035589250       10.10199417431596        9.97340084951049
H           18.93967740681386       10.00101220658511       10.78592529157009
C           17.47052837736639        9.01261874246488        9.57171185857519
H           17.58440632241473        8.05663502818290       10.06959212950005
C           16.56962403976990        9.13720404142516        8.52386608004718
H           15.98799949174240        8.27653265932913        8.21504255155037
C           16.33775561187588       10.56697551260366        5.01135770445835
C           17.56680156985194        9.90305372845634        4.99815039329517
H           17.92326384380369        9.40912676217335        5.89487165757766
C           18.33471380899828        9.87336856157469        3.84353766225175
H           19.28735819621116        9.35662565376177        3.84642269937008
C           17.88519157604532       10.49865678796104        2.68856240800798
H           18.48480410336760       10.47072063207872        1.78642650759507
C           16.66722998119895       11.16476663723418        2.69291452314163
H           16.31102959780254       11.65606239842164        1.79489222248699
C           15.90428875248337       11.20765433531153        3.84873347914918
H           14.96105772651920       11.74487342760353        3.85442530319316
C           14.34374596616596        9.06742474832841        6.40841965317215
C           14.80037994131570        7.77787012510101        5.99714382484972
H           15.77507205216385        7.56027383286917        5.58075562692940
C           13.81180958433292        6.82859384252315        6.34201644189472
H           13.90159871853368        5.75576974542485        6.23396780885698
C           12.73314210420587        7.51390377289092        6.95189538114589
H           11.85681526687157        7.05795980940538        7.39277623446817
C           13.05552671285264        8.88822210342866        6.99275156319273
H           12.48277207630277        9.66525636786658        7.48185727561679
C           11.47698552130794        9.10136997465069        4.00258329227456
C           12.73244800458672        9.52994535403373        3.47877153847149
H           13.03567283879796       10.56131615565920        3.35975084523034
C           13.43438384229174        8.39480150802618        3.01614040160592
H           14.37890395572362        8.40708357286126        2.48837352768663
C           12.63181391172549        7.25467619952247        3.26320901421932
H           12.85945010747286        6.24138379566601        2.95934180216512
C           11.43102491810071        7.68154010275052        3.87570131364270
H           10.58349400470978        7.05545152483862        4.12157331091220
C            9.08051738983778        9.24386386206210        5.53116837329155
C            9.36024359998540        9.21337265722240        6.90038622326937
H           10.19015630098009        9.79428403742469        7.28954597940464
C            8.58712495441051        8.45629423188899        7.76492906921873
H            8.82175946007042        8.43707010165905        8.82299842055624
C            7.50964012626166        7.72887264010657        7.27720638677865
H            6.90026869212502        7.14120943387337        7.95353734284853
C            7.21094052206528        7.76590189274915        5.92267542523650
H            6.36465181505435        7.20907327879490        5.53751358768753
C            7.98880297508483        8.51737188765251        5.05420215021802
H            7.73770676751158        8.54391053597810        4.00026889211180
C            9.26576645499312       10.48317079711669        2.91165850255775
C            9.06142310505355        9.46057747654371        1.98083398301720
H            9.45105793899197        8.46741433401947        2.17398230886962
C            8.37210089279760        9.71293697732601        0.80381071404915
H            8.21649025126271        8.91133115250939        0.09122383740869
C            7.88746908996597       10.98640814389534        0.53574342075900
H            7.35214396107030       11.17981179595053       -0.38631515932888
C            8.09783219576429       12.01344540909952        1.44592834807462
H            7.73195145915987       13.01206010783335        1.23679159738466
C            8.78465071757469       11.76295797757001        2.62399366217504
H            8.95815086470983       12.56706554119869        3.33193455985834
Fe           7.04406446874636       15.84069855827974        7.45837375883185
Fe          16.16034529309418       16.59430691385275        2.21613441759011
Fe          14.80424344262736       12.89574254298030       13.09106335165075
Fe          13.03911501975552        8.23250410146853        5.03918614271008
P            7.51894514867211       12.47676284784265        8.38266313421948
P           10.60726046863818       16.31037415195626        7.39931298221028
P           13.47440141099549       14.31293396783077        2.03967937341410
P           16.27996016094633       16.76770432814492        5.75907810918698
P           14.82895236056027       15.74664456358806       11.07083202249326
P           12.67811682145058       10.92845780630174       11.06430951190242
P           15.26212243032399       10.62258289746536        6.47824638929546
P           10.16819724137389       10.25905258598950        4.47614579139091
