228
 energy: -336.605533095390 gnorm: 0.000048825842 xtb: 6.5.1 (579679a)
Au          -3.08909247958846        8.78687794142045        7.13329261659491
Au          -1.21689814666374        6.91661481665596        7.40016076991687
Au          -1.32993500814501        8.99635720065263        9.38889077630515
Au          -3.14640682138678        7.17352117962630        9.51343060510892
C            2.29885043447575        9.98915601568827        4.43870095443276
C            2.79743246136648        8.85667186738298        5.08925562786691
H            2.18633956503128        8.36252419331308        5.83777600244170
C            4.05842194960623        8.36663210432297        4.78975914736754
H            4.43610704870946        7.49373615597647        5.31015929123242
C            4.83392892105421        8.99483957270195        3.82371042696203
H            5.81735356309995        8.60906598527451        3.58259676740517
C            4.34629625329959       10.11661628631233        3.16715214972272
H            4.95050997652715       10.61084422757252        2.41532885223411
C            3.08828345325153       10.61518896842128        3.47212964089442
H            2.71764266451666       11.49367928531605        2.95666267050213
C            0.09518460823880       11.60498761514630        3.53422243781355
C           -0.01239000391188       11.00022657107344        2.27480305588823
H            0.33462836376693        9.98086559917646        2.14257752780221
C           -0.54503666994295       11.68714250794395        1.19706247033560
H           -0.62034423981309       11.20024296481739        0.23175426887108
C           -0.98291735920047       12.99590240123109        1.35686245852743
H           -1.40741497181544       13.53360931481423        0.51732351399874
C           -0.87344908580492       13.61159394872908        2.59592873597043
H           -1.19909912218836       14.63747652525172        2.72372823507972
C           -0.34279223061083       12.92179280028894        3.67874707472738
H           -0.27001970037393       13.42174360312373        4.63699964019007
C           -0.21363448564840        3.58296587526831        8.11599053261872
C            0.57645906891063        2.51243905119955        8.54474737098232
H            1.61254792717547        2.68108225165564        8.81732508622849
C            0.04058147274863        1.23727939239886        8.62694511195967
H            0.66144835790656        0.41409970968237        8.96079237061793
C           -1.28646948672519        1.01172539042985        8.28282899514970
H           -1.70125273203921        0.01260797673685        8.34555334320277
C           -2.08255197658266        2.06935765445954        7.86675700636000
H           -3.12140904850119        1.90194018535801        7.60548273816828
C           -1.54935560107279        3.34656474315485        7.79073944280097
H           -2.17175021916607        4.17653108574348        7.47537833800655
C            1.40910794959737        5.53114140380417        9.46512906181895
C            2.79342226391302        5.36944302374541        9.55994482082233
H            3.36469515965823        5.02209331840748        8.70742203913583
C            3.45340540548612        5.65070549505284       10.74781664790015
H            4.52826692783114        5.52336103445208       10.80410614381129
C            2.74647558992076        6.09470443873942       11.85593749243290
H            3.26739120401282        6.31926141533207       12.77909067604928
C            1.36836465302311        6.24864932059701       11.77831558536559
H            0.80689803670819        6.58994979935400       12.64044127422306
C            0.70862819743024        5.96984834416229       10.59347215001598
H           -0.36765185867880        6.09623337232099       10.53566367344398
C            1.98784534356177       10.25781799399734        9.28017851498524
C            2.22671571793093        8.99091456401268        8.74448337604263
H            1.38837776550832        8.33294227950781        8.53927591307643
C            3.51968988978374        8.56808323174496        8.47770327700846
H            3.68922331013352        7.57858811877108        8.06818912815350
C            4.59311530614606        9.40632899020951        8.74316366470868
H            5.60397469378454        9.07598982450167        8.53510263097539
C            4.36913415984265       10.66644729872922        9.28287721985791
H            5.20570184213131       11.32088383127380        9.49827390152209
C            3.07806014259209       11.08972428321519        9.55409705776110
H            2.91210330772325       12.07054680300230        9.98614257448166
C            0.37751955393653       11.36322687499699       11.34386689327240
C            0.51192710830533       12.70350053108876       11.71284671005191
H            0.57863341247141       13.47729512775376       10.95730326639320
C            0.56036043917808       13.05988345136303       13.05288044223996
H            0.66347838976880       14.10409226200292       13.32444959100272
C            0.47930683925589       12.08857501536592       14.04052571220795
H            0.51736993190387       12.37219567161392       15.08558772470617
C            0.34628166361104       10.75228567761950       13.68610814116735
H            0.28015296494158        9.98863416696612       14.45240469764638
C            0.29126398922610       10.39443526026722       12.34963858052591
H            0.17815155287133        9.35061499987392       12.07312953044813
C            0.23825643572092        3.90130268399516        2.08219496911068
C            0.95687174953483        2.71424184062641        2.25429397251146
H            1.94739368258724        2.73509277794124        2.69417917344644
C            0.41056621595969        1.50082871369079        1.86426399114026
H            0.97862747009429        0.58823895679440        2.00295072751981
C           -0.85528796601986        1.45217456038454        1.29533200863323
H           -1.27693319113731        0.50167633105642        0.99036840940635
C           -1.58079200970119        2.62300957450091        1.12209106139362
H           -2.57219361830697        2.59152053223208        0.68497819076107
C           -1.03848298272500        3.83511885031888        1.51644301220629
H           -1.60977270045354        4.74906796683754        1.38942594060063
C            2.11954909731117        5.99113334843496        1.33333872643576
C            2.55059939259375        7.32186953641167        1.33824654012180
H            2.11197077670098        8.02300015720359        2.04230156581456
C            3.52588698939273        7.75011505183181        0.45340046943851
H            3.85392033146407        8.78333380820230        0.47250774353368
C            4.07471882129758        6.85727627845734       -0.45821781147076
H            4.83460716692417        7.19197917717920       -1.15445412008979
C            3.64267047854580        5.53846290148748       -0.48141648105255
H            4.06399829861632        4.84157357231391       -1.19658778921696
C            2.67077319434023        5.10421590319757        0.40782610124630
H            2.33835076029549        4.07273140581955        0.38030873192092
C            0.97638394527962       11.66019349534275        6.35576052754652
H            1.67438949571129       11.11157393877152        6.99418330399780
H            1.47983850215013       12.58238154616672        6.05537803380512
C           -0.29190868648595       11.97844846104461        7.15593419317629
H           -0.80727792693725       12.83193949763426        6.70564667489809
H           -0.98166023385875       11.12727695541372        7.11117385411088
C            0.01610929247221       12.29766238079119        8.62241663885799
H           -0.84542637953788       12.82107519038874        9.04701896389962
H            0.87262138538793       12.97357520301547        8.68114863270590
C            1.70969244987357        5.07545983460767        6.59992240301636
H            2.31509431530714        5.98591762495570        6.57481619324042
H            2.38407320534022        4.23429572551597        6.77513597793006
C            0.99475813367745        4.90183898617965        5.25684556898755
H            0.11565344497047        5.55607778847369        5.23747696266636
H            0.63499959863061        3.87394452988815        5.15990006862643
C            1.88758390061554        5.25687963905493        4.06863382293890
H            2.64931824828943        4.48936914313464        3.91401283958922
H            2.41239794736636        6.19476837278817        4.27287876909900
P            0.63518204700466       10.55037430402687        4.91163338813207
P            0.44490426679392        5.27067582325214        7.94177558790893
P            0.26951115155988       10.75828576169576        9.63350769868804
P            0.84863564755702        5.54493168168768        2.55524485710248
Au          -0.93388569437735        8.78694109234607        5.26067862140880
Au          -2.80609607326068        6.91660913281034        4.99372914932326
Au          -2.69315077787294        8.99632840885148        3.00511710932346
Au          -0.87662903172334        7.17338843784293        2.88048452263548
C           -6.32183363084474        9.98917633387939        7.95521260770571
C           -6.82043580761176        8.85669724802008        7.30466103802941
H           -6.20937180585851        8.36257232836058        6.55610176363936
C           -8.08140619998275        8.36663946364660        7.60420748466741
H           -8.45911542322527        7.49375858947721        7.08379954610488
C           -8.85686860151739        8.99481716952124        8.57031220073245
H           -9.84027957938144        8.60903166113698        8.81146339066422
C           -8.36922396990757       10.11660022531981        9.22685044905081
H           -8.97341386319418       10.61081446920594        9.97870185962653
C           -7.11123656191856       10.61519965122456        8.92181286575518
H           -6.74057804116506       11.49367805322774        9.43728708044912
C           -4.11816003156110       11.60499306042613        8.85967675298420
C           -4.01055876495984       11.00021483792247       10.11908447639332
H           -4.35756267259668        9.98084585680842       10.25129874258968
C           -3.47791848721640       11.68712885335090       11.19682760533819
H           -3.40261325133100       11.20022781111247       12.16213513844266
C           -3.04004506790114       12.99589275487060       11.03703284201766
H           -2.61554406488961       13.53359531570291       11.87657249461402
C           -3.14952124866109       13.61159225338750        9.79797115556773
H           -2.82387886983294       14.63747776737458        9.67017744198629
C           -3.68018706733899       12.92179797821200        8.71515360750222
H           -3.75296361602084       13.42175130236383        7.75690242917664
C           -3.80933965542221        3.58299082068978        4.27795980664685
C           -4.59944225149735        2.51245405808144        3.84923059648812
H           -5.63553642686777        2.68109518624110        3.57667297535515
C           -4.06356829111356        1.23728951761154        3.76704114805645
H           -4.68444659917410        0.41410595073315        3.43322336509828
C           -2.73650970180755        1.01174118087699        4.11112831851582
H           -2.32172656026974        0.01262291085732        4.04840808960061
C           -1.94041934115680        2.06937941749304        4.52716840091314
H           -0.90155874376687        1.90196366741685        4.78842995400281
C           -2.47361141387503        3.34658969482916        4.60318152607523
H           -1.85120657754549        4.17655727755563        4.91851695191292
C           -5.43209230228199        5.53113319896638        2.92882148798291
C           -6.81640976596483        5.36941905110526        2.83401875092048
H           -7.38767400984579        5.02208015629407        3.68655097217014
C           -7.47641125729246        5.65066873651017        1.64615099634207
H           -8.55127259007481        5.52331258242903        1.58987353364925
C           -6.76950101422461        6.09466518749986        0.53801797162187
H           -7.29042941715127        6.31919079699800       -0.38513714921406
C           -5.39139105744405        6.24862720688094        0.61562258376629
H           -4.82994023342509        6.58993083770397       -0.24651218671766
C           -4.73163356051571        5.96984270921904        1.80046192010522
H           -3.65535598418184        6.09626362005531        1.85826388778351
C           -6.01079953037259       10.25779850689358        3.11375300044476
C           -6.24967610938854        8.99089522040211        3.64944876557470
H           -5.41133873488999        8.33292180778766        3.85466732534137
C           -7.54265655254983        8.56807269242985        3.91622371685337
H           -7.71220297652906        7.57858485673234        4.32575078220699
C           -8.61607806452152        9.40632281795329        3.65075494549576
H           -9.62693976144640        9.07599109493884        3.85881591474417
C           -8.39208882995531       10.66643954341302        3.11104043002835
H           -9.22865366974526       11.32088010237362        2.89564427101001
C           -7.10101172377562       11.08970952522089        2.83983022366518
H           -6.93504529806363       12.07052779001659        2.40777868305510
C           -4.40049491257827       11.36322105854465        1.05006451701357
C           -4.53488391250089       12.70350359747466        0.68110635644728
H           -4.60158426601607       13.47728828843025        1.43666070376584
C           -4.58330482267297       13.05991151359214       -0.65891916521421
H           -4.68642542918090       14.10412510964454       -0.93046950096510
C           -4.50225444632795       12.08862000978936       -1.64658187891106
H           -4.54032028686021       12.37226163550972       -2.69163730381343
C           -4.36923948427515       10.75232363061579       -1.29218689261118
H           -4.30312233179295        9.98868272588779       -2.05849475831583
C           -4.31423470985031       10.39444793363275        0.04427648517047
H           -4.20112282478035        9.35062182585044        0.32076581999779
C           -4.26122863402946        3.90124440942483       10.31173431528726
C           -4.97985432933952        2.71419712443832       10.13960829518971
H           -5.97037102539801        2.73506029682071        9.69971207903517
C           -4.43357055527144        1.50077375905468       10.52964128865377
H           -5.00164292203516        0.58819456587501       10.39093612032453
C           -3.16773064076272        1.45209812525837       11.09860203923119
H           -2.74609993925167        0.50159240681071       11.40356236220107
C           -2.44221230593175        2.62292108691681       11.27185946580160
H           -1.45081445916721        2.59141908485283       11.70897955312642
C           -2.98449960385837        3.83503690517980       10.87750675419439
H           -2.41319841647164        4.74897445264479       11.00454186559294
C           -6.14247512960152        5.99111769988786       11.06060840086546
C           -6.57350873751310        7.32185899449579       11.05570738595097
H           -6.13487712872245        8.02298916834435       10.35165405032949
C           -7.54879566871878        7.75011065892057       11.94055269881469
H           -7.87681526022479        8.78333384057406       11.92144812202646
C           -8.09764583781373        6.85727283258030       12.85216102036667
H           -8.85753299964578        7.19198127821033       13.54839657190844
C           -7.66561442564428        5.53845406063789       12.87535137745985
H           -8.08693985034277        4.84156596990607       13.59052521915548
C           -6.69371707003754        5.10420163363601       11.98611024775816
H           -6.36130401960432        4.07271447490734       12.01362927404086
C           -4.99936015298308       11.66018495746662        6.03814187610395
H           -5.69734016613850       11.11154982470295        5.39970355715687
H           -5.50285276506042       12.58235472400677        6.33852055692447
C           -3.73107197415732       11.97848551128680        5.23797792820422
H           -3.21575440284385       12.83200874077785        5.68826270703966
H           -3.04127861172086       11.12734762211648        5.28275448986779
C           -4.03908431356191       12.29766496037671        3.77149045128438
H           -3.17755673096596       12.82107830243291        3.34686971402201
H           -4.89560349256419       12.97356782632506        3.71274652240874
C           -5.73265143571890        5.07548857606856        5.79401301166622
H           -6.33803012798349        5.98596209099750        5.81911977640611
H           -6.40705225012690        4.23433788937830        5.61880092716113
C           -5.01769528174958        4.90183720891909        7.13707671853275
H           -4.13857467983987        5.55605466151951        7.15642880838798
H           -4.65796552267564        3.87393389418343        7.23402686668066
C           -5.91050514980121        5.25689886856035        8.32529906139972
H           -6.67226742909360        4.48941798970333        8.47992378278111
H           -6.43529063087394        6.19480480930968        8.12106288672430
P           -4.65815617766309       10.55037030993678        7.48227502657459
P           -4.46785398791524        5.27071480707645        4.45216861234833
P           -4.29246648531712       10.75827450904632        2.76041970211588
P           -4.87156533261343        5.54489397269518        9.83870552861724
