254
 energy: -375.649943939452 gnorm: 0.000349077633 xtb: 6.5.1 (579679a)
Au          27.70696135722259       12.11337873150061        2.31589318051574
Au          26.03877190806537       12.96381842234754        0.00271560900352
Au          24.78964742276755       11.80095283918254        1.96583583326322
Au          23.32828889645516       13.94935194084485        0.65671654729337
C           29.02971124421668       15.31652473103698        2.59626740147689
C           29.82929881828001       14.87098082974399        1.53931255099280
H           29.85052787560913       13.81325273873599        1.29812443989464
C           30.58925382273865       15.76074967013493        0.79743953084709
H           31.20260041339761       15.39509981133668       -0.01802418296523
C           30.55903319847809       17.11569970393272        1.09616899432020
H           31.15022800354059       17.81412163319107        0.51582580067897
C           29.76596889605448       17.57402668774787        2.13960744559426
H           29.73925293607225       18.63099418584755        2.37816733227644
C           29.00694091683714       16.68445971742055        2.88552227126153
H           28.39496976750133       17.06312105065014        3.69579434419930
C           29.06506348141318       13.78512591398428        5.03634097424869
C           29.63406861044714       14.83220706806900        5.76739980758115
H           29.52954806138979       15.85468585955632        5.42230519551155
C           30.34098015512648       14.57200441948373        6.93027181589776
H           30.77869834231051       15.39279626085095        7.48645040724272
C           30.49104155043923       13.26692610690265        7.38099544177865
H           31.04553307076592       13.06744305486126        8.29031108092483
C           29.93554352514841       12.21846210872763        6.66108219357317
H           30.05471463668920       11.19708289134340        7.00322770604269
C           29.23024214312946       12.47599033067310        5.49559619220190
H           28.80588189364895       11.65426465556050        4.92857142001259
C           17.65808628379168       12.30926054491294        1.70891622399897
C           16.62651996839006       11.56832833747513        2.29109800983176
H           16.84167201824731       10.62113510274050        2.77251503744663
C           15.32081405386873       12.03436339814600        2.25173251129244
H           14.53012049831398       11.44934779276645        2.70695661146449
C           15.02567011775853       13.24246735895855        1.63350771786070
H           14.00354394921072       13.60084459168655        1.60345062347844
C           16.04225235117858       13.98586147341523        1.05024224038868
H           15.82163451097401       14.92783117207573        0.56144937985406
C           17.34756243608567       13.52097012135177        1.08662645803416
H           18.13583262851570       14.09814805483414        0.61776747219798
C           19.29778965462625        9.96407422212372        1.71224864114912
C           19.48410925223872        9.34648478364677        0.47274686060756
H           19.71972792893695        9.95954249395388       -0.39054611884145
C           19.36718032603661        7.97387225328878        0.33374456229436
H           19.50996777792211        7.51593624891890       -0.63847323746487
C           19.07195835727525        7.18959632548046        1.44055496204922
H           18.98019764205077        6.11498051003274        1.33603189415331
C           18.90190200349221        7.78601709849524        2.68236119777664
H           18.67850646174164        7.17715100515907        3.55073053836250
C           19.00957658510890        9.16191121095626        2.82021582628916
H           18.87192382260170        9.60823720550975        3.79810658588482
C           24.11745160343084        8.91488916727946        3.99208080249649
C           25.13649241703424        8.35983989237253        3.21610805149326
H           25.69459025037957        8.99548023434935        2.53866355390760
C           25.43961828915910        7.00999219078491        3.30607602313909
H           26.23359552354693        6.59578855026665        2.69543832462556
C           24.72478059798907        6.19625574571585        4.17308063156494
H           24.95679727951336        5.14011134890430        4.24358027456765
C           23.71377478215003        6.73886040401229        4.95689293543234
H           23.15893470691311        6.10738301846370        5.64116172097244
C           23.41291877573579        8.08901234292676        4.87390527759239
H           22.63052867619139        8.50262562570374        5.50069200585946
C           24.18098937366558       11.34941289462134        5.47635101230611
C           23.27948098470541       11.44342484256211        6.53875822754731
H           22.25409794210855       11.11395569625107        6.41919682473395
C           23.68835551479248       11.95152288898467        7.76326983200270
H           22.97621159175478       12.02083340973536        8.57742495617643
C           25.00016785057957       12.36366565624287        7.95032791702163
H           25.31503093707318       12.75787147149757        8.90925976812079
C           25.90969862241161       12.26437147957252        6.90576868062175
H           26.93945313964893       12.57365389090107        7.04505336156744
C           25.50018701738516       11.76560910505384        5.68001043964886
H           26.21309275474319       11.68551011161490        4.86466551417668
C           23.86144737824377       17.41476410060314        1.04568944569946
C           23.90399939197615       17.33618782481684       -0.34958012961926
H           23.60629872170688       16.41446091634396       -0.83885661998928
C           24.32163941961705       18.41443220746106       -1.11299231516451
H           24.35082893074126       18.33229930059096       -2.19329873287278
C           24.70315485528268       19.59551930858741       -0.49200968084920
H           25.02121426845536       20.44385766346409       -1.08640734646511
C           24.68541447350955       19.68244998212658        0.89376746492197
H           24.99349584950967       20.59847369900465        1.38422432597971
C           24.27203038582156       18.60177757103007        1.65830561792594
H           24.27028534863496       18.68888694887034        2.73836806431793
C           21.64660600853294       16.46948376727309        2.67144856253587
C           21.51928549773891       17.56162918300396        3.53510917076023
H           22.38573983973161       18.16096142101098        3.78855343430259
C           20.28569520053310       17.89478273777425        4.07076218581895
H           20.20260025959222       18.74822380512198        4.73350744993007
C           19.16056071721478       17.14342222810537        3.75885679171918
H           18.19654681468458       17.40847534799105        4.17646544721250
C           19.27323784980209       16.05744129973375        2.90300087487646
H           18.39648520130092       15.47434404125171        2.64563913904648
C           20.50605186789316       15.72655202746713        2.36251663548727
H           20.58523128314472       14.88773705371553        1.67861727246707
C           27.57753816419105       10.38944895094115        1.34250127056330
C           27.54905457539618        9.32905159631106        0.75233848645010
C           27.53919980487670        8.07680328025376        0.07996748329407
C           26.34103034238466        7.37152969117093       -0.07515663807680
H           25.42275534057439        7.78915886100329        0.32116406820054
C           26.32473357028851        6.15786188464396       -0.74172154084843
H           25.38879825933459        5.62263942843381       -0.86093863640673
C           27.50134481008620        5.63080250963863       -1.25880087151555
H           27.48730388269423        4.68113537839040       -1.78055486754420
C           28.69593081298114        6.32377165217966       -1.10624963948647
H           29.61447971282761        5.91270536727932       -1.50925584529013
C           28.72015523550905        7.53928036979313       -0.44254074087573
H           29.65137964369258        8.08177669909949       -0.32544421031630
C           26.60624027665220       14.96020798851291        4.16111923697335
H           26.01795334679624       14.23811050574112        4.73541872231198
H           26.87581695717001       15.76756255636571        4.84615815999959
C           25.76261431742509       15.49943204099526        3.00559061877426
H           26.23596816920324       16.38695163592578        2.57770185231380
H           25.72236195847167       14.74215432813362        2.21477680071366
C           24.33512114455289       15.83595595441577        3.43788413654243
H           24.32924935443291       16.74270238966686        4.04674363299523
H           23.94037409500879       15.02634830644458        4.05935305853545
C           19.90452155831323       12.27324854022446        3.45077484201264
H           19.38347875240813       11.68311893484748        4.20882013269533
H           19.58796927858433       13.31173031453908        3.58471032222725
C           21.41625848660048       12.20138047218535        3.67880773551024
H           21.65482023826243       12.69689710811638        4.62499480046503
H           21.92838555857178       12.75547959683835        2.88419894686080
C           21.93003741996885       10.76132768902490        3.70476089005756
H           21.66137984895002       10.26784896429871        2.76583923533982
H           21.43769209518685       10.20722281357379        4.50773523191987
P           28.09825661395726       14.06037926427355        3.52207712045245
P           19.40271283457125       11.78167640587648        1.72906098475956
P           23.77655861039250       10.69483603947875        3.82505830039588
P           23.23969054464578       15.95749588327953        1.94583047803792
Au          19.12111284802291       13.53677525290548       -2.31588734404937
Au          20.78924067167980       12.68651239718895       -0.00273515080656
Au          22.03874692429387       13.84902971730388       -1.96583996901330
Au          23.50003866290597       11.70096485942076       -0.65683375052400
C           17.79848598116906       10.33363511065188       -2.59625986750585
C           16.99890370060532       10.77918973847395       -1.53930553217662
H           16.97768022095770       11.83692001639689       -1.29812348208587
C           16.23894789046377        9.88942590649334       -0.79742661736402
H           15.62560372184560       10.25508084547375        0.01803663291514
C           16.26916381555457        8.53447392482940       -1.09614931333732
H           15.67797004530187        7.83605602570954       -0.51580026396541
C           17.06222219110562        8.07613892082013       -2.13958865433942
H           17.08893419830265        7.01917054609788       -2.37814458671249
C           17.82125022857476        8.96569932025808       -2.88550971479225
H           18.43321764616764        8.58703274822244       -3.69578208056049
C           17.76313244573151       11.86501741529190       -5.03634605625903
C           17.19412415582381       10.81793103759192       -5.76739549798285
H           17.29864091708933        9.79545523844659       -5.42229094299123
C           16.48721585774360       11.07812531683747       -6.93027096401334
H           16.04949630394077       10.25732940816806       -7.48644245404447
C           16.33715968441622       12.38319983844588       -7.38100679699112
H           15.78267090150224       12.58267581631234       -8.29032569069050
C           16.89265852935281       13.43166921649979       -6.66110193363930
H           16.77348983103176       14.45304551322806       -7.00325690020567
C           17.59795732818797       13.17415035508895       -5.49561211793289
H           18.02231794861013       13.99587984607742       -4.92859306323575
C           29.17011128381611       13.34090280689123       -1.70889766743690
C           30.20168500164234       14.08183089392624       -2.29107334822537
H           29.98654016296633       15.02902343506572       -2.77249522434167
C           31.50739043485664       13.61579261325897       -2.25169416275207
H           32.29809004556532       14.20080389993518       -2.70691336873466
C           31.80252766196631       12.40769075802513       -1.63346206923400
H           32.82465238228948       12.04931018264839       -1.60339534807151
C           30.78593908481193       11.66430081756116       -1.05020375039623
H           31.00654869238376       10.72233253692731       -0.56140454334180
C           29.48063088372175       12.12919346627876       -1.08660517961618
H           28.69235806007369       11.55201059983160       -0.61776035847701
C           27.53041244519326       15.68608755699630       -1.71225436780799
C           27.34410555641738       16.30368962523478       -0.47275747810011
H           27.10849081067800       15.69064019119070        0.39054259657598
C           27.46103946111188       17.67630372601660       -0.33376873501612
H           27.31826405971591       18.13424909242154        0.63844644050009
C           27.75625098093064       18.46057060460957       -1.44058851906166
H           27.84801555908455       19.53518730207393       -1.33607558281763
C           27.92629218077889       17.86413843739399       -2.68239123444061
H           28.14967894303753       18.47299735895904       -3.55076817961086
C           27.81861480197005       16.48824236416734       -2.82023159106847
H           27.95625722292823       16.04190940956460       -3.79812059040342
C           22.71073558616528       16.73524782023734       -3.99209065207719
C           21.69171002324792       17.29029817610346       -3.21609819314593
H           21.13362205463893       16.65466065307580       -2.53864444742512
C           21.38858361784767       18.64014497254446       -3.30605978575794
H           20.59461843301270       19.05434778425199       -2.69540597956489
C           22.10340528763718       19.45387935273100       -4.17307886386640
H           21.87138644194940       20.51002316056769       -4.24357525423372
C           23.11439708039876       18.91127444958017       -4.95690929781947
H           23.66922524971458       19.54275112561377       -5.64118806024322
C           23.41525441428275       17.56112287980264       -4.87392737924928
H           24.19763311718091       17.14750715221907       -5.50072688953898
C           22.64721543118177       14.30071831186515       -5.47636176677318
C           23.54873163858706       14.20670710927967       -6.53876242340749
H           24.57411242555088       14.53618109389826       -6.41919508495007
C           23.13986865145610       13.69860258250821       -7.76327493954280
H           23.85201797232970       13.62929686642564       -8.57742567986988
C           21.82806036211100       13.28645033319576       -7.95034049586446
H           21.51320549544521       12.89224193685384       -8.90927388376033
C           20.91852227936955       13.38574183545513       -6.90578747877862
H           19.88877006555338       13.07645439762931       -7.04507838959631
C           21.32802235611999       13.88451221927627       -5.68002892231974
H           20.61510936373420       13.96461226489884       -4.86469125117776
C           22.96675235467632        8.23537621100790       -1.04569073915419
C           22.92419356442128        8.31394961388144        0.34957870340634
H           23.22188511692516        9.23567631800211        0.83885906794810
C           22.50655855304050        7.23570405147111        1.11298865329610
H           22.47736293676615        7.31783896089264        2.19329466461777
C           22.12505771984443        6.05461458230847        0.49200325068383
H           21.80700557437100        5.20627318261384        1.08639971953524
C           22.14280480477787        5.96768491960323       -0.89377419577830
H           21.83473404533660        5.05165875678376       -1.38423250397153
C           22.55618201197653        7.04836107475007       -1.65831065006491
H           22.55793049414467        6.96125467297134       -2.73837338759304
C           25.18158921483305        9.18067667904688       -2.67144368785808
C           25.30891914321839        8.08853551290792       -3.53510921837838
H           24.44246987639347        7.48919732123250       -3.78855656156713
C           26.54251243371844        7.75539344505531       -4.07076333784847
H           26.62561436798429        6.90195560705395       -4.73351218268271
C           27.66764121539650        8.50676138509021       -3.75885559479924
H           28.63165681771724        8.24171861176631       -4.17646750909282
C           27.55495588645937        9.59273692682785       -2.90299351239120
H           28.43170443198359       10.17583921619552       -2.64562897810074
C           26.32213857453736        9.92361482156887       -2.36250815769259
H           26.24295063029078       10.76242762973573       -1.67860670355456
C           19.25062952830508       15.26066897768663       -1.34244794783700
C           19.27915277603363       16.32109892547880       -0.75234513201906
C           19.28899304989316       17.57334484003244       -0.07997025918215
C           20.48716794768009       18.27860357000970        0.07517752251320
H           21.40544509726255       17.86096009956012       -0.32112311814025
C           20.50346703484984       19.49227256998651        0.74173965559375
H           21.43940710066498       20.02748288553835        0.86097378882889
C           19.32685204605377       20.01934749757890        1.25879416985483
H           19.34089358198124       20.96901932068378        1.78053962603074
C           18.13226266216527       19.32638624149702        1.10623224680160
H           17.21371280875590       19.73746120060606        1.50922749817234
C           18.10803630648816       18.11087503658288        0.44252756543856
H           17.17680953704533       17.56838376758959        0.32542670236696
C           20.22195689629890       10.68992676024854       -4.16112531590640
H           20.81024289793565       11.41202184524887       -4.73542904745258
H           19.95237460502680        9.88257035919124       -4.84615948827577
C           21.06558046036449       10.15070862819395       -3.00559224304258
H           20.59223325400375        9.26318388162670       -2.57770727617757
H           21.10581914058701       10.90798706345471       -2.21477874451576
C           22.49307861126551        9.81420040404169       -3.43788033198990
H           22.49896007672170        8.90746160284729       -4.04675107102995
H           22.88782006821670       10.62381845634904       -4.05933965657476
C           26.92368125845494       13.37690955927510       -3.45075951859012
H           27.44471622703575       13.96703309297588       -4.20881553429928
H           27.24023845023203       12.33842879022309       -3.58468824261476
C           25.41194292360854       13.44876599501352       -3.67879030234068
H           25.17337971963598       12.95323786753774       -4.62497173514485
H           24.89982239874130       12.89467460057546       -2.88416852597849
C           24.89815733128960       14.88881714432351       -3.70476468884618
H           25.16681774215181       15.38231082145986       -2.76585151642413
H           25.39049397432576       15.44291706068265       -4.50774770493358
P           18.72994504260436       11.58976381155841       -3.52208609408986
P           27.42548201941290       13.86848321396669       -1.72904292786229
P           23.05163669729123       14.95530442325507       -3.82506944814542
P           23.58850185943712        9.69265322019296       -1.94582063326959
