258
 energy: -371.564264728606 gnorm: 0.000047797178 xtb: 6.5.1 (579679a)
Au           3.49668501863100        3.55544988517707        9.16848192106318
Au           6.40799096583788        3.28030013957687        9.60817085596016
Au          10.29389778488641        4.21350604860000       11.73199702755191
Au           7.76711954094306        5.41351823430230       10.99938148459908
P            2.97631595737152        5.60041789026472        8.19010790637258
P            7.49254396480351        2.28977174883930        7.72242506476784
P           11.74004029335065        3.42933775558170        9.98907763348602
P            7.93487646968891        7.39549630582254        9.67124598544466
C            2.04276553043260        6.76065713331637        9.23140368510520
C            2.07778981729842        8.15108108199935        9.08768204028866
H            2.70296070091626        8.60846059842887        8.32991754885830
C            1.31285107507350        8.96273910874160        9.91231403139710
H            1.34967329774534       10.03874974946342        9.78720375479341
C            0.50102822617329        8.40301362148920       10.88951225046596
H           -0.09455148545276        9.04078576369681       11.53190516704351
C            0.45629550778023        7.02422321837174       11.04162644464462
H           -0.17405973794775        6.57984841563912       11.80321599880476
C            1.22242239002950        6.21174580285438       10.22145638583675
H            1.18908940507166        5.13448680222275       10.34638144987184
C            1.98152689361888        5.43638848213810        6.67789748880678
C            1.29606438226396        6.51253163983125        6.10697650346440
H            1.31883704143951        7.48519151911045        6.58568850620559
C            0.57774050512987        6.34255240724452        4.93426773222048
H            0.04847212278198        7.18431287673150        4.50304317968801
C            0.53322538206774        5.10044750734874        4.31472037146355
H           -0.03036791603744        4.97127391150712        3.39830944213174
C            1.20534768769887        4.02313962728145        4.87521011979389
H            1.16842079793557        3.04944675881735        4.40075162606543
C            1.92159783259844        4.18947021173529        6.05038890019923
H            2.43553566906482        3.34353957040094        6.49450217593890
C            7.05668145483713        3.04356410277008        6.12090198229662
C            5.74643761929667        3.50142320321675        5.96004481079143
H            5.04530103407126        3.40245378350385        6.78286432925319
C            5.32992423754677        4.06901360999555        4.76658023280440
H            4.30559911637476        4.40822206092383        4.65939427700919
C            7.52968551215270        3.74724503801215        3.85872663468296
H            8.23077999065270        3.84012726980692        3.03737472519627
C            7.94364397239570        3.16795510970184        5.04894878111178
H            8.96155011858941        2.80608978025970        5.13553057356919
C            7.19153179662360        0.51752486223794        7.42397691472841
C            5.85678085429782        0.10129239470703        7.38617981312143
H            5.06527701040513        0.83171179570822        7.51375180257560
C            5.53489638166156       -1.23241430569905        7.19516814491705
H            4.49509504157328       -1.53641940491046        7.16598188230876
C            6.54345073177544       -2.17456042436779        7.03972341530183
H            6.29469987286203       -3.21878781988822        6.89223656303504
C            7.87151327513287       -1.77374662343051        7.07206600326940
H            8.66348728568202       -2.50278574515005        6.94408099272581
C            8.19774381767941       -0.43797123086363        7.26489636637899
H            9.24203199214356       -0.14901370983535        7.28350848607483
C           13.47226560527242        3.98952221138858       10.08085806941485
C           14.51728820797991        3.36573037720696        9.39469086520978
H           14.32265674110092        2.48949322456714        8.78712528317498
C           15.81087283085150        3.85650939822333        9.49088962162790
H           16.61195077059662        3.36221589670876        8.95371522832061
C           16.08071724540843        4.97373659474852       10.27039311427587
H           17.09333062785954        5.35222120431848       10.34388176122464
C           15.05131432462710        5.60046660246877       10.95874970533550
H           15.25302087199323        6.47008207257556       11.57322579564759
C           13.75781530902404        5.11037289000105       10.86485200686230
H           12.95857414886534        5.59638983606233       11.41278074869959
C           11.84797953575720        1.61272318500976        9.89890615918705
C           11.53382400712236        0.91391663133506       11.06725201596403
H           11.23713476049937        1.47062996746368       11.94961315673068
C           11.59511892638384       -0.46901326855933       11.11243329130080
H           11.35091142786228       -0.98975694894388       12.03119839751745
C           11.96385528481693       -1.18196568771067        9.97996249252279
H           12.00856455667085       -2.26422979245871       10.00948899431836
C           12.26986922778685       -0.50323195226320        8.80806449507587
H           12.55433127278879       -1.05537737360495        7.91985037708496
C           12.21591809864540        0.88180842787592        8.76487481213934
H           12.45209853667525        1.39135371389842        7.83807971060950
C            6.22519644729106        4.19860622437310        3.71346801671975
H            5.90535951284671        4.64670296190836        2.78019403184600
C            9.53646054926161        7.76876356286014        8.88388086283335
C           10.69335009290312        7.28588913920679        9.50042068862121
H           10.61083826693046        6.70596455032442       10.41398471313039
C           11.94686566669847        7.54150773292939        8.96440666569678
H           12.83279571621800        7.15915659355144        9.45785545914049
C           12.06458818951033        8.28693074926303        7.79897875808153
H           13.04293605436255        8.48988120803149        7.38000621942555
C           10.92327492766429        8.76658502283647        7.17180158869300
H           11.00720668601558        9.34580691881549        6.25962538114084
C            9.66955272720989        8.50906314814508        7.70517809346545
H            8.79273866680805        8.88765596241419        7.19357773154237
C            7.49753952985214        8.92700260203110       10.55423284573495
C            7.63678582353270       10.19729463341962        9.98689780007906
H            8.00646248143625       10.30041728450765        8.97317990187721
C            7.31298047910471       11.33104777146920       10.71498792304225
H            7.42957319406217       12.30969759939306       10.26431146522269
C            6.84703546622288       11.21537605700214       12.01821680485369
H            6.60010539980857       12.10324928412000       12.58830418874967
C            6.70144159631021        9.95963345675297       12.59016190867127
H            6.33842590546577        9.86206620282572       13.60648706090732
C            7.02616120364812        8.82426027730529       11.86469447458265
H            6.91685391015400        7.84391419277084       12.31740296075770
C            3.88297421850831        1.74351914362830        9.89924211274344
C            4.24498806932582        0.66192113949967       10.30488737655591
C            3.39668531969570       -1.43931407293036       11.29900556387209
H            2.66819290996118       -1.52483726840398       10.48742246026229
H            2.92636107759227       -0.87379135705730       12.10993443507371
C            3.76763796014781       -2.84189773049599       11.79042846569024
H            2.84480252625060       -3.41178618982213       11.93603028814282
H            4.35509272436901       -3.35443335334505       11.02129154341403
C            9.32991067310943        2.43327683343818        7.84970276288241
H            9.62292147765248        1.88251761486246        8.74795253914298
H            9.85049774891130        1.97507854880000        7.00532531897497
C            9.77761913929736        3.88885202688517        7.99206835437167
H            9.55055418721896        4.43665933798996        7.07203309705128
H            9.21609043992098        4.36721626207974        8.80216138594796
C           11.27631404404557        4.00341440296511        8.28138466793211
H           11.55619585844922        5.05924007027730        8.22181377341912
H           11.84697828929271        3.47951623675330        7.51040048930383
C            4.43303888180456        6.57593033865117        7.58022010639911
H            4.98945795613426        5.92206960136371        6.90207380849508
H            4.12498115187948        7.44734779921655        6.99737558498204
C            5.34459954423167        6.99931702942108        8.73301027042143
H            5.42481856450208        6.17012531039468        9.44353190230147
H            4.90495424824928        7.84340561914312        9.27083686816899
C            6.74603827185838        7.37110328239888        8.24493867417772
H            6.70770831361810        8.32684857126209        7.71746018165095
H            7.09693729960864        6.61543938631004        7.53556803331309
Au          11.85432553596151        5.00773497127262       14.14056730900587
Au           8.94104742260359        5.28279959024915       13.68388918031189
Au           5.05569367802686        4.33902149284201       11.56981546385768
Au           7.58191140038041        3.14587415978720       12.29196722897264
P           12.34897746757632        2.97219938835360       15.15020000541383
P            7.83368670938945        6.26210281974902       15.56175593698544
P            3.59611381641430        5.06499227538581       13.32689862647098
P            7.42117293872175        1.16590931450851       13.62136252506950
C           13.25982615411863        1.77458339863766       14.13098828115572
C           13.20320607465066        0.38845267486163       14.30626913729866
H           12.57648473429272       -0.04142828638808       15.07873140378079
C           13.94845205597408       -0.45409827715161       13.49477251817279
H           13.89428306750841       -1.52632003084159       13.64386541990768
C           14.76283348924094        0.07016137841084       12.50019236264576
H           15.34329726501026       -0.59155038598196       11.86825847081224
C           14.82965317713646        1.44429189766914       12.31740277306052
H           15.46250377159818        1.86100203914241       11.54238825302177
C           14.08222724274541        2.28761993759320       13.12364410685814
H           14.13203911996695        3.36111406199931       12.97398513899492
C           13.34598805060590        3.14618680811307       16.65974891985089
C           13.99869634481105        2.06548742064391       17.25980530560862
H           13.94729625498596        1.08162424043469       16.80693496753275
C           14.72101001592099        2.24471228915779       18.42864854435688
H           15.22451412160814        1.39912497652666       18.88264325879036
C           14.80247423474850        3.50086465211892       19.01528257183253
H           15.36920318320030        3.63721065820698       19.92871530830704
C           14.16326880049822        4.58262921035145       18.42568129940543
H           14.22918339389063        5.56698356508105       18.87427489088105
C           13.44284747084342        4.40680846486209       17.25438726911799
H           12.95456226217627        5.25564713166713       16.78752571548151
C            8.29003561478577        5.54153258624362       17.17285978970955
C            9.61582368365086        5.13441333602236       17.34373213065231
H           10.31752322809115        5.25344774938057       16.52401311673549
C           10.04684753407678        4.59162865286418       18.54359880143721
H           11.08239408669525        4.29118325432324       18.65814112685023
C            7.83189622899305        4.83720192544617       19.43797672242039
H            7.13033012930793        4.72398213277315       20.25637160880178
C            7.40273933042928        5.39144331815883       18.24119080175823
H            6.37222829799699        5.71342775569278       18.14684336501519
C            8.08528924847112        8.04644235974733       15.83200475711693
C            9.40798047909662        8.50006331094776       15.86383073574439
H           10.21961882068155        7.78987353825041       15.74888582512306
C            9.69240088741231        9.84510796344276       16.03353252109305
H           10.72330259517046       10.17821736374980       16.06061503024222
C            8.65783100660828       10.76151313701567       16.17074066340955
H            8.87728219314203       11.81458230249127       16.30093696851634
C            7.34147855206080       10.32361345585848       16.14280219465588
H            6.52935042804614       11.03264377261071       16.25634065067678
C            7.05279220555330        8.97628762883706       15.97336332267002
H            6.01681031433957        8.65854519696379       15.95837203222611
C            1.87353567436112        4.47511040802216       13.23372627889964
C            0.82419978638808        5.06075612449111       13.94655399701766
H            1.00936764488702        5.92141394295994       14.57878284751254
C           -0.46214863949015        4.55236598526372       13.84555528802753
H           -1.26644142331930        5.01730561526735       14.40372261326842
C           -0.72087736550195        3.45522849037577       13.03438281036968
H           -1.72796600214279        3.06300364020189       12.95716783465647
C            0.31264436660322        2.86662159895787       12.31914015835607
H            0.11985976818514        2.01322233930534       11.67956516539000
C            1.59894198776778        3.37447677140116       12.41808500109657
H            2.40097712439890        2.91834649213071       11.84924673157137
C            3.44938900127356        6.87627070919284       13.46229539224220
C            3.73838145366033        7.61036389048809       12.30919603328918
H            4.03984074133103        7.08259069793965       11.41065536237858
C            3.64580993901838        8.99247966985795       12.29919580824012
H            3.87199379274535        9.54101505796522       11.39216532727207
C            3.26973866606507        9.66876662301459       13.45170968001772
H            3.19939483822121       10.75003762326224       13.44930230130509
C            2.98842869130939        8.95444466126322       14.60864470616676
H            2.69838525166720        9.47779057765740       15.51234324699565
C            3.07437898858321        7.57040697479269       14.61695447344279
H            2.85784307954042        7.03288689877812       15.53266756788063
C            9.15158020374519        4.43630684291809       19.59323161051046
H            9.48307388781447        4.00727152638381       20.53138048866120
C            5.80628373534009        0.73532817894640       14.35303651875194
C            4.65435505502035        1.19335630956287       13.70848838812701
H            4.74694679087294        1.79848480897606       12.81249895645228
C            3.39389717641381        0.88188157909617       14.19541022508177
H            2.51198392064950        1.24262406748954       13.67924794142485
C            3.26394105944503        0.11024896399407       15.34213646188717
H            2.28010033781588       -0.13442146039952       15.72432635439616
C            4.40015169393805       -0.34476783023898       15.99715467279588
H            4.30638713426374       -0.94538569504259       16.89436805885431
C            5.66097483082942       -0.03726728206424       15.50874851497115
H            6.53321885346008       -0.40459248816525       16.03613828589603
C            7.93220428273824       -0.35526958776720       12.76005851420949
C            8.06702840027331       -1.58776655581093       13.40632224271886
H            7.88387083153021       -1.66524061713813       14.47189507745113
C            8.43155773967597       -2.71916434896454       12.69338807310562
H            8.53192139378950       -3.66796548910149       13.20736104106208
C            8.66027997606566       -2.64006696135512       11.32578131352487
H            8.93897858756168       -3.52689140692800       10.76888250903762
C            8.53043663731109       -1.42199964792083       10.67405497013827
H            8.71043169143452       -1.35239495331715        9.60779155212376
C            8.17000260376841       -0.28878215213465       11.38572240623033
H            8.07152665968175        0.66237523105503       10.87249219255326
C           11.48009682701441        6.81582876967082       13.39774493182823
C           11.10280202956802        7.89176078915037       12.99146815542670
C           11.78554977159972        9.87484073152025       11.66183498583492
H           12.58806720159652       10.19870654697086       12.33055633415784
H           12.21106240358692        9.15327679796411       10.95793135084820
C           10.68109367431751        9.18943522178317       12.47950835413570
H           10.37466205049357        9.83381930939844       13.31117107259330
H            9.80105172845355        9.03337146567341       11.84390072263845
C           11.22776695707504       11.07214808555178       10.88837217962845
H           10.85185596807177       11.82089953275689       11.59336690204834
H           10.38151973270212       10.74238958815803       10.27418503712373
C           12.29083098998062       11.69768485070491        9.98818276852698
H           12.64591056534352       10.96955798560695        9.25705349057377
H           11.87414179212375       12.55129356794326        9.45354969187585
H           13.14111317823927       12.03862991753957       10.57939349097780
C            6.00043740161673        6.07101157645546       15.43717579700691
H            5.69517304043794        6.61153484242294       14.53678385629679
H            5.46971818225941        6.52102123987251       16.27965350525599
C            5.58350076692189        4.60604445158726       15.29879902458435
H            5.82653916117742        4.06326429672900       16.21773262685327
H            6.15110814762958        4.13997165484363       14.48588265202428
C            4.08628484100369        4.45875250041657       15.01588037215324
H            3.83490021119579        3.39447828008746       15.04890912276980
H            3.50737209354905        4.94720487250741       15.80380137898736
C           10.87244776689563        2.03491443277888       15.77159370228497
H           10.31400561146869        2.71586681258437       16.42076149851648
H           11.16001651569067        1.17715097392482       16.38432509841583
C            9.97632133982540        1.58948866082212       14.61535476403798
H            9.92039066515117        2.39805035213498       13.87906766945432
H           10.41502291300028        0.72419458094843       14.11151598174606
C            8.56070687096529        1.24845428593910       15.08311324933745
H            8.57998221263611        0.32236554484041       15.66150821757422
H            8.19325270657442        2.04031438443627       15.74287656161493
C            4.61826656789030       -0.66343485970012       10.78345362860349
H            5.09490646748862       -1.22014761634546        9.96786707374600
H            5.35921184395597       -0.55179309402695       11.58305807541415
C            4.54862580481021       -2.82513111840086       13.10366353183640
H            5.50174601451563       -2.30677270730356       12.98955276584337
H            3.97490781806428       -2.32312500252855       13.88418015022152
H            4.75259417254497       -3.84599768101318       13.42724280876697
