230
 energy: -345.157854678030 gnorm: 0.000040535339 xtb: 6.5.1 (579679a)
Au          -2.11991029664057        0.35615710929582       16.17218467834492
Au          -3.62982540156041        2.68045523859610       17.23443777745378
Au          -4.45444008355093        0.31348233437581       18.07450363130154
Au          -6.20582164597251        2.53008619109156       18.42925308363321
Au          -4.05857740798045        2.41988054665483       20.00130723263858
Au          -5.82064575033933        4.62598054660151       20.36902941061554
Au          -6.61109974515346        2.24555977911536       21.21363376859122
Au          -8.18694367468281        4.59091690026659       22.22394033070650
C            1.23427779864303        0.08380126349699       17.08036542955985
C            1.45702380676129        0.16647140594162       15.70239734643177
H            0.62442108923469        0.03954005586999       15.01882080335680
C            2.72728355861448        0.40898173321622       15.20333881717644
H            2.88261938356969        0.46642934399631       14.13250180251062
C            3.79455779494630        0.57650295081539       16.07542215485030
H            4.78802898047449        0.76802625795337       15.68776119884280
C            3.58623093260920        0.49781420875547       17.44577430378693
H            4.41643755329578        0.62701415759566       18.13039222486492
C            2.31810548946789        0.25141222228029       17.94841156119492
H            2.17649961334974        0.18884903540450       19.02117007171283
C           -0.47068206828284       -2.04263811586437       18.02954789213215
C           -1.36837948856433       -2.87268520831108       17.35387161401734
H           -2.04607964666156       -2.44398013593068       16.62326743289779
C           -1.40322838146534       -4.23428246080679       17.60974639120086
H           -2.10643383035153       -4.86245693972815       17.07528985609295
C           -0.54211037737816       -4.78619988425263       18.54707029650817
H           -0.56866378928634       -5.85034247421616       18.74932066790123
C            0.35788063293988       -3.97210256332475       19.22349493542860
H            1.03627490331308       -4.40021143116311       19.95220576021405
C            0.39874773630353       -2.61105808419048       18.96621528041131
H            1.11299552682197       -1.98833487387040       19.49307668572986
C           -1.00222844129906        4.92787506000411       16.21270399841076
C           -0.26387953375403        3.77044845258204       15.95307180157733
H           -0.77938352526452        2.81959045746029       15.85703926555805
C            1.11336081863846        3.81915099316194       15.81311457692870
H            1.66651552375993        2.91004250510277       15.60672447852034
C            1.77937704751473        5.03071669498214       15.93608441671676
H            2.85698788274520        5.07178360754798       15.83024243460402
C            1.05952712702252        6.18952296063938       16.19236462172230
H            1.57370825869177        7.13905071466533       16.28574096364865
C           -0.31958148725793        6.14236543367884       16.32775264023009
H           -0.86314192471947        7.05985854929166       16.52073631435077
C           -3.49719812944340        5.32335262789962       14.79704959801372
C           -3.30403468238492        6.61756312847082       14.30282732114275
H           -2.70279094800703        7.32953404792353       14.85729159319210
C           -3.87518798704503        6.99801366941038       13.09918488309720
H           -3.72064837238311        8.00427349949495       12.72720011968511
C           -4.63795935760949        6.09495764007695       12.36887135636980
H           -5.08038334771301        6.39741922851142       11.42701534801242
C           -4.82649648833542        4.80556774491411       12.84512754500367
H           -5.41610611260856        4.09427487994829       12.27849960830749
C           -4.26137917834252        4.42302925255832       14.05153501099700
H           -4.40934083575544        3.41455961173143       14.41954225381594
C           -4.48260375043767       -2.93150718623942       19.64939775266041
C           -3.21177705938970       -2.54452824309967       20.08122230436846
H           -2.75485103411959       -1.65946472058891       19.65073923007344
C           -2.53118799812565       -3.27392056858744       21.04290302433244
H           -1.54028042782717       -2.96279694106721       21.35336736069871
C           -3.12135702550806       -4.39820367347047       21.60433219697435
H           -2.59317846274278       -4.97021611353892       22.35788292541792
C           -4.39234010373335       -4.78389634091882       21.20001776432535
H           -4.86001475186418       -5.65690887521310       21.64012416020465
C           -5.06827947616239       -4.06215754581306       20.22799984048407
H           -6.05918850923156       -4.37944444392695       19.92486113058092
C           -5.03546506130333       -2.96549648624206       16.83239737902110
C           -5.02981106848537       -2.31053168542827       15.59756429288089
H           -5.16046127178827       -1.23505775617483       15.56029054692407
C           -4.85109043957676       -3.02039242620183       14.42133772198149
H           -4.83862030227932       -2.49425920571658       13.47403471988656
C           -4.67903330721890       -4.39708738648598       14.46081437445368
H           -4.53445931632323       -4.95364662173652       13.54245337211581
C           -4.68763052103848       -5.05968558153648       15.68109209190182
H           -4.55548632471249       -6.13481555547080       15.71730597809762
C           -4.86098950078815       -4.35167566613138       16.86086184877280
H           -4.85677066151792       -4.88094548414966       17.80680266763572
C           -7.96651829705135        1.17786832874014       15.67765968711653
C           -7.10084260090361        1.31252564504796       14.58694536559959
H           -6.55587024481211        2.23889567210898       14.44505902781408
C           -6.92774937367017        0.27483382433265       13.68613345542390
H           -6.25023778434214        0.40017956624178       12.85011049293215
C           -7.61102533370455       -0.92067830289970       13.86242460407135
H           -7.48134800775235       -1.73214969970466       13.15632373857176
C           -8.45710148638731       -1.07596337938074       14.95191853310608
H           -8.98928204786402       -2.00867035489128       15.09966913238690
C           -8.62833680740825       -0.04014070833495       15.85836343155725
H           -9.29184534764192       -0.18603120413943       16.70319672361703
C           -8.02349489596499        4.01466759198454       15.83974248116259
C           -8.94213461169923        4.19267007750966       14.79992435058487
H           -9.70284480879716        3.44162317877991       14.61773744230723
C           -8.87771971340468        5.31585761750743       13.99146012128612
H           -9.59426681486429        5.44105765827330       13.18812905773602
C           -7.89299572793300        6.27312507280172       14.20048325515368
H           -7.83776484862012        7.14552215202769       13.56007915673311
C           -6.97421578680948        6.10607647985124       15.22660691762143
H           -6.19763448789448        6.84456936167412       15.38953322627180
C           -7.04296475573388        4.98680662644289       16.04146707614812
H           -6.32165556268188        4.85714840071486       16.84161186957989
C           -2.20932048827294        3.90089873919411       22.61843862717009
C           -1.43032063412784        5.05961074419953       22.59854203615443
H           -0.65319623373609        5.19092078528536       21.85490744130033
C           -1.63074497212023        6.05628237417321       23.54413430878546
H           -1.01268483758715        6.94638063764146       23.51920819270750
C           -2.60970463608337        5.91454259638808       24.51689465553140
H           -2.76031335494160        6.69483417858841       25.25336134138738
C           -3.39924463129858        4.77181616913659       24.53934872433595
H           -4.17526355517448        4.65516044776250       25.28625426703971
C           -3.20465665097230        3.77852301405439       23.59516089493400
H           -3.83397396569101        2.89470636496966       23.61085181535869
C           -1.89416202420538        1.09955918073315       22.45084305867493
C           -0.83181499613870        1.00120665604297       23.35500710986255
H           -0.09944401026301        1.79866188800841       23.41653814477556
C           -0.71516510612943       -0.10324746155901       24.18306832388263
H            0.11252406863734       -0.16741925895955       24.87968984264850
C           -1.66052465124579       -1.11947147515377       24.12958182592925
H           -1.57320645259573       -1.97860764212659       24.78420029978908
C           -2.72230863267323       -1.02887859577225       23.24108960808644
H           -3.46832722390209       -1.81386704862477       23.20149249574538
C           -2.83712775077839        0.07168643575898       22.40641694436018
H           -3.67117453443047        0.14087229989202       21.71525579417720
C           -5.25792978288957        7.90526094866281       21.66679855174313
C           -5.30802232291042        7.24468662520176       22.89720350224174
H           -5.20582907134469        6.16614630302465       22.93045026263903
C           -5.49161854261802        7.95317655358687       24.07363144174506
H           -5.53723540116524        7.42304320035704       25.01769839171861
C           -5.62490417042164        9.33422732570717       24.03804386140733
H           -5.77284462189013        9.89019932180727       24.95622167071296
C           -5.57277827001167       10.00242295018059       22.82175696761831
H           -5.67414415048123       11.08099406738678       22.78886397007279
C           -5.39361853623851        9.29584073948751       21.64192810376429
H           -5.36345749246451        9.82935461478815       20.69880205457040
C           -5.74358696360773        7.89937290665185       18.83859791268484
C           -7.01935246176955        7.54589552821738       18.39325648930482
H           -7.50462395668931        6.67661633775921       18.82378313736505
C           -7.66790388023476        8.28595304840660       17.41802504215942
H           -8.66092126613204        7.99664625518583       17.09347465438271
C           -7.04103993798111        9.39151353643874       16.85913256223877
H           -7.54331054647706        9.97279061261252       16.09503939697472
C           -5.76635684660445        9.74638639750714       17.27964634168560
H           -5.27061103342405       10.60532467710967       16.84253324341211
C           -5.12130642057025        9.01135564109677       18.26287942916557
H           -4.12721359584233        9.30626928284839       18.57779142912901
C           -9.03320758841821       -0.01096956120243       22.63015719402516
C           -9.54026582016165       -1.14962486064529       23.26362476465690
H           -8.87581063971971       -1.96629937879810       23.52296296216968
C          -10.88809563664961       -1.23867499555181       23.57158351842109
H          -11.26827747498923       -2.12594659265566       24.06431786936074
C          -11.74908221301040       -0.19528257595049       23.25624604223362
H          -12.80219152839712       -0.26731565880631       23.50118154410328
C          -11.25650090861058        0.94261374139613       22.63322115023615
H          -11.92057199662467        1.76485440823550       22.39116206060800
C           -9.90827775479969        1.03277172111483       22.32579230149925
H           -9.52356141670049        1.92772743910804       21.84669979035456
C           -6.36842395010001       -0.37686956282845       23.68179421641182
C           -6.11939902289530       -1.71573577967037       24.00214335929944
H           -6.46846168514310       -2.51249364237351       23.35588957915181
C           -5.41867457731988       -2.04314610067885       25.15373853616729
H           -5.23818118234396       -3.08547781728289       25.39039971424279
C           -4.95160885442055       -1.04513756826703       25.99896087036076
H           -4.40340975755405       -1.30706892655299       26.89623961234228
C           -5.18872587846304        0.28649082425473       25.68868038518264
H           -4.82636416536563        1.07203207199600       26.34149051220700
C           -5.89068895793324        0.61717065417522       24.54079198149317
H           -6.07364244686063        1.65912084455677       24.30663021362691
C          -11.49817368665822        4.86562614620491       21.18630850076305
C          -12.56147701169624        4.82788086761089       20.27766967209902
H          -12.39218616925747        5.03533889922059       19.22734817785315
C          -13.84283231053175        4.52575447580818       20.71095539214574
H          -14.65662461146899        4.49979832245068       19.99563926045484
C          -14.08514588549954        4.25904770233408       22.05187598736383
H          -15.08888916349111        4.02420406747636       22.38552570046449
C          -13.03875842143870        4.29390160435220       22.96335090357292
H          -13.22027872223566        4.08872407722144       24.01175589345119
C          -11.75555768211946        4.59348003765745       22.53315604772517
H          -10.93960508074218        4.61701123948922       23.24748119781344
C           -9.76808178227358        7.06328577893251       20.42655545508521
C          -10.60091194137099        7.68729466480411       19.49180836202349
H          -11.30117859872003        7.10033451832077       18.90852478934436
C          -10.54198630629461        9.05919625875336       19.30588154024351
H          -11.19237312079707        9.52923280404836       18.57747334969347
C           -9.65899499845348        9.82993549088943       20.05152309200473
H           -9.61719643337066       10.90257272541606       19.90419878976174
C           -8.83463482349149        9.22323395493188       20.98793025448029
H           -8.14532162235167        9.81722966766802       21.57669785508941
C           -8.88826764134760        7.85088257659818       21.17300733248919
H           -8.23850609661282        7.38021917509118       21.90313811682529
C           -0.58776695926783        0.55694915580998       19.29571049467379
H           -1.57672599330267        0.32806735196389       19.70380401232693
H            0.14661658010676        0.16298822272717       20.00275040198037
C           -0.43328694804148        2.07328415067764       19.17196435773240
H            0.52244315132319        2.31077363068940       18.69404266894332
H           -1.22563760658887        2.46252191984188       18.52344738064939
C           -0.49545610640190        2.78797810180861       20.52403214478504
H           -0.34762935162959        3.85343138483274       20.33197876055393
H            0.33091105162413        2.45315084666867       21.15618912244836
C           -3.28127194973956        6.12639644365222       17.54422681088039
H           -3.01063945641753        7.11446806029048       17.16432024988052
H           -4.37237889585583        6.10319700945401       17.61913218852699
C           -2.68200916082997        5.92147440924930       18.93560907521634
H           -1.59032821830874        5.98076988196864       18.88217896455315
H           -2.93746020183328        4.91727053486620       19.29185573914172
C           -3.18824735032758        6.95106773471267       19.94860557812802
H           -2.85198344375215        7.95136195490946       19.66509756418126
H           -2.73942875752536        6.72556730002446       20.92097734203158
C           -7.07640273553056       -2.00501035594476       18.59931361918454
H           -7.54704038130188       -1.78084722159149       17.63752201977230
H           -7.40602615093266       -3.00473928425234       18.89257561886540
C           -7.55411888227765       -0.97240112924856       19.62476789214558
H           -7.25268655445346        0.02627488122729       19.29007897261658
H           -8.64768414011801       -0.98562517080644       19.66711747932336
C           -6.97856056442409       -1.23977644182362       21.01553162865915
H           -5.89362553428395       -1.35492380909863       20.93683359781847
H           -7.38010505390411       -2.18336902331808       21.39331677460670
C           -9.75930391381323        2.45880624850136       17.58666573265246
H          -10.45973120860687        2.97504857694366       16.92503039566914
H          -10.07814381853273        1.41583794904537       17.64341152062408
C           -9.85283028891533        3.04664345373857       18.99641681467848
H           -9.12144100983766        2.55216030527841       19.64454559215510
H          -10.84765079991855        2.83395003443456       19.39959098292085
C           -9.60227617722087        4.55460320088729       19.01135159345749
H          -10.26897445076958        5.04761634754453       18.29906378487225
H           -8.57910204506957        4.75033300972751       18.67717092198215
Cl          -3.73885227218936        0.90388335704892       14.61827385980767
Cl          -6.63498897639931        4.03095234767514       23.83615561857940
P           -0.45457010819555       -0.26766139724589       17.64253862996990
P           -2.80842225615513        4.76144344830734       16.38417457346809
P           -5.23915187526459       -1.93997579488202       18.32135272122805
P           -8.03336490132800        2.53072056730196       16.89177981615400
P           -2.12497662776507        2.56037371022979       21.39097281967549
P           -5.03140371425193        6.88711165446919       20.17564375198421
P           -7.27324121006762        0.15949387890825       22.19573992943998
P           -9.79412841770917        5.26861195388256       20.71142804178584
