258
 energy: -383.997487472842 gnorm: 0.000454815682 xtb: 6.5.1 (579679a)
Au           5.37867831862112        7.16017238499836       14.61820226120720
Au           4.37014676861275        4.77910723030825       13.14250341905456
Au           1.89450405159652        5.07812965328439       11.65950053928743
Au           1.91031772452753        2.75147465805549        9.93351441091551
P            3.74857181459553        7.98987387952964       16.04680017862968
P            4.75694541345883        2.74103689733247       14.33099856130833
P            0.00686502934040        5.31071002574404       13.10853214041938
P            1.90178799258930        0.57407889528853       10.92925726000297
C            4.30692834670818        8.16507849266175       17.76714557584018
C            3.60352392292828        8.91528997593467       18.71397280275730
H            2.70267127903634        9.44529680270310       18.42551398092151
C            4.05578243554391        8.99442409344232       20.02134097023707
H            3.50271484785193        9.58161384833258       20.74519888507091
C            5.21278376942727        8.32787791892217       20.40308615670239
H            5.56405048237967        8.39346658212990       21.42603957906103
C            5.92250645744464        7.58406526718114       19.47061935786180
H            6.83021406963351        7.06770127982123       19.76034300771173
C            5.47428877169643        7.50599222275618       18.16108407115553
H            6.03723753834619        6.93519374893266       17.43014242898438
C            3.08893626505859        9.62371641296434       15.60357080196556
C            1.81762286861567       10.08241904712741       15.96210705016401
H            1.14447578329457        9.44689117895082       16.52545452186562
C            1.40221788995998       11.35584105330027       15.60185150573397
H            0.41444189754604       11.69757897834184       15.88881284449991
C            2.24600002480400       12.19126071132082       14.88230799735922
H            1.91734442615855       13.18522857475552       14.60276361468177
C            3.51023499637883       11.74782199727695       14.51997349438600
H            4.17376193182023       12.39281407655331       13.95550780837340
C            3.92573100008423       10.47470051324302       14.87531948394633
H            4.91251023462632       10.12900601628687       14.58522577840426
C            6.47254201629098        2.12851395281966       14.39468252187342
C            7.46574312004209        3.06141856603842       14.70882666141967
H            7.18771979364030        4.09068369331008       14.90675542509541
C            8.79851827916343        2.68874903547806       14.76239097235229
H            9.55433834516432        3.42673720270300       15.00402850624773
C            9.16245831426759        1.37414741341478       14.50271025639226
H           10.20377765653250        1.07801597301997       14.54741106051463
C            8.18616653166309        0.43775555561454       14.19079970687059
H            8.46268399790960       -0.59143544501484       13.99234211604377
C            6.84954634883407        0.80862453114350       14.13446969047540
H            6.10580178207979        0.05921189642027       13.89056816870124
C            4.27612289544315        2.79026958277806       16.08868960855033
C            4.48636474931532        3.98820500984639       16.77707955001688
H            4.91807566617105        4.83406833909179       16.25083779106197
C            4.16104196109603        4.10695382328777       18.11864137534286
H            4.34023547361606        5.04289991476807       18.63601639217115
C            3.60843485606241        3.02708469683396       18.79401427118087
H            3.34779962308070        3.11713224617391       19.84188975252927
C            3.39565406277474        1.83077542831096       18.12332103931587
H            2.97023432537227        0.98284142681316       18.64753507522567
C            3.73092609373654        1.70797692347305       16.78303229856200
H            3.57096435421597        0.76025175089314       16.28229254085588
C           -1.16902188126505        3.92452105759126       13.25542607412656
C           -2.08028235378156        3.80283941476758       14.30877639917612
H           -2.10852496276431        4.54634275309762       15.09667822649730
C           -2.96022452194262        2.73238363250264       14.35771686039828
H           -3.65920427646089        2.65199377365112       15.18203548884519
C           -2.94989812782026        1.77021816072758       13.35659797105182
H           -3.64216815997207        0.93760024086051       13.39558922358251
C           -2.05176955310288        1.88077705928982       12.30480937604943
H           -2.04267605527310        1.13767972225561       11.51585710331466
C           -1.16813257747566        2.94790959694246       12.25757568074130
H           -0.47236008151180        3.03201589408929       11.42919887397933
C           -1.03442419326567        6.76874730818706       12.78093728086857
C           -1.90888490445990        7.31888210186638       13.72258837561477
H           -1.99973035776811        6.87596889513743       14.70751721223280
C           -2.67249520536444        8.43201640890399       13.40809342646394
H           -3.34974993576774        8.84427530220486       14.14694091733156
C           -2.57995270864165        9.00973364873762       12.14887079290345
H           -3.18335359086797        9.87522656299237       11.90212567473691
C           -1.71540094643468        8.47218083416270       11.20534644402033
H           -1.63685683638415        8.92060234987710       10.22215605917530
C           -0.94881503048384        7.36196319041782       11.51918218299408
H           -0.27326094096779        6.94628163130042       10.77832923954285
C            3.46980219822729       -0.33076858811030       10.72780148120988
C            3.91542645779314       -1.36414727898692       11.55796021706814
H            3.32797156695024       -1.66769299390196       12.41656821626568
C            5.11869289927756       -2.00354011514987       11.30017065720639
H            5.45181895270886       -2.80087569222303       11.95436619540902
C            5.89227504812611       -1.63018533011276       10.20952954171176
H            6.82998304199828       -2.13495946524193       10.00925434101205
C            5.46318241360884       -0.60374534296543        9.37941071817180
H            6.06226431659456       -0.30316021144401        8.52753363474786
C            4.26675646261973        0.04224696923347        9.64238306207811
H            3.93665661593199        0.85067525018242        8.99859175665785
C            0.63670575658428       -0.58427179097837       10.31241488232424
C           -0.48258384108230       -0.05071463375264        9.66840423192517
H           -0.56149312249048        1.02221339453708        9.53607278846695
C           -1.48614861162435       -0.87709387166871        9.18702411836273
H           -2.34555608624955       -0.44409762770279        8.68861524598340
C           -1.38357553705183       -2.25264663217176        9.34059659204752
H           -2.16442103696690       -2.90173429277748        8.96243693572357
C           -0.27450225285315       -2.79593233736903        9.97564889775646
H           -0.18865600170149       -3.86963020745855       10.09577069343144
C            0.72993740328297       -1.97068132636945       10.45885682828979
H            1.59252743646133       -2.40960514578829       10.94684780598757
C            6.85150811807629        6.44040456570170       13.50413938223545
C            7.66541418034723        5.85743187927097       12.80428939716519
C            8.58751943952037        5.19461629486782       12.05823834091024
C            9.38488245967106        4.55718494948179       11.39523161462373
C           10.29839020146744        3.78895063148455       10.63799792145507
C           10.65885821766833        4.17724963981467        9.34191641910588
H           10.24516828884056        5.08715821718329        8.92292853817292
C           11.53567841477981        3.40140161020485        8.60282078696562
H           11.80943466108557        3.70763725385106        7.59945447323867
C           12.06608114550714        2.23600829433539        9.14247354731500
H           12.75357355259366        1.63297594413309        8.56121047990438
C           11.71706303282360        1.84685343663961       10.43015734605128
H           12.13300273923299        0.93973066971520       10.85372027670188
C           10.83852889809986        2.61355547384851       11.17628128621417
H           10.55895292889703        2.31051775640798       12.17909972168162
C            2.25404452349746        6.90599775897149       16.22701092200591
H            2.61432443328893        5.91267833555272       16.51092232742237
H            1.59420113453289        7.24555255675974       17.02893909743991
C            1.48640506581469        6.81093553071757       14.90754266765754
H            2.20314987134770        6.76542853128884       14.08055543924825
H            0.88257088247302        7.71032191275546       14.76029762065983
C            0.59055747989244        5.57319906186013       14.84956763427389
H           -0.22598262893160        5.67320117014551       15.56763187102145
H            1.16938551695692        4.69008349253432       15.13644398349020
C            2.30070663983729        1.65390856109093       13.52161551370290
H            1.89061432067130        1.72987665543104       14.53363488183321
H            2.15026385771879        2.62440892998492       13.03605776814651
C            3.79717840578343        1.34540731241663       13.59262879712634
H            4.18085485992000        1.21106518172650       12.57725042519263
H            3.94662196844237        0.40116568518149       14.12158955132078
C            1.52675005713702        0.58085363664464       12.75115229410459
H            0.45800385964010        0.79527763553109       12.84727372424085
H            1.69681524781566       -0.39987592723933       13.20259347459801
Au           0.58228480017725        2.66948849695592        7.27484739948505
Au           1.59136739801845        5.04977382952158        8.74965259046168
Au           4.06491704168977        4.75019695101935       10.23256485070123
Au           4.04895507311569        7.07634424892064       11.95995979886694
P            2.21123851763285        1.83819736276496        5.84575887500975
P            1.20295181927879        7.08715271327541        7.56156587020482
P            5.95311989780990        4.51742342112782        8.78402459132056
P            4.05821720887520        9.25399652516414       10.96331506398129
C            1.65298159256655        1.66306311252157        4.12537405303671
C            2.35641734445383        0.91286489764766        3.17856315309690
H            3.25726272391997        0.38285822877108        3.46704564669649
C            1.90417918123257        0.83372358032629        1.87119028580053
H            2.45725816536652        0.24652800192359        1.14734731256291
C            0.74718073313351        1.50026401629036        1.48942383277849
H            0.39593126550797        1.43467186925768        0.46646603089767
C            0.03743914029679        2.24407994036911        2.42187228288033
H           -0.87026564611952        2.76044136099786        2.13213659466294
C            0.48563464407818        2.32215844863489        3.73141004507735
H           -0.07732414551794        2.89297216566386        4.46233217468561
C            2.87094902385151        0.20438601146431        6.28897781658384
C            4.14228115241938       -0.25427431489364        5.93045456479797
H            4.81541599943951        0.38127060131287        5.36710970366329
C            4.55770988528936       -1.52768657133007        6.29071372672826
H            5.54549117040348       -1.86940559144927        6.00375209843464
C            3.71394368163762       -2.36312173512455        7.01025996172437
H            4.04261502681261       -3.35708039384064        7.28981013109574
C            2.44970078126990       -1.91971438552680        7.37259237553624
H            1.78618142328796       -2.56470757559255        7.93706347303029
C            2.03417840748112       -0.64661654329055        7.01723176792097
H            1.04738456210363       -0.30097095583867        7.30731475114765
C           -0.51263173785546        7.69967337157568        7.49787992536970
C           -1.50582112066713        6.76675542945541        7.18375359454943
H           -1.22778720598623        5.73749419791132        6.98582178114593
C           -2.83859531541559        7.13941757337241        7.13019082963669
H           -3.59440954231497        6.40142651291196        6.88854613245359
C           -3.20253747851501        8.45401871116962        7.38987394563932
H           -4.24385676901241        8.75014592774157        7.34517329313721
C           -2.22625240738020        9.39041477851868        7.70179541997683
H           -2.50277158211454       10.41960147556982        7.90026718522230
C           -0.88963185256535        9.01955463537855        7.75811241436208
H           -0.14588426904656        9.76896047219777        8.00202701492521
C            1.68380886728354        7.03787394550473        5.80388800624387
C            1.47356216648613        5.83993265621049        5.11550539190776
H            1.04186393026479        4.99406212694642        5.64176151667877
C            1.79888550966433        5.72118924063707        3.77393918239709
H            1.61968958794084        4.78524630016296        3.25656012788411
C            2.35150215098734        6.80105504939493        3.09856504042501
H            2.61214405479993        6.71100557914556        2.05069071462139
C            2.56428962632331        7.99736388294859        3.76925539128243
H            2.98971452319086        8.84529623451035        3.24504120920412
C            2.22901713417309        8.12016305925994        5.10954357869825
H            2.38898086477925        9.06789052176612        5.61027935975792
C            7.12900430419409        5.90361780790645        8.63713054659822
C            8.04025673980051        6.02530267170135        7.58377533880893
H            8.06849496868596        5.28179871680594        6.79587436286976
C            8.92020064619715        7.09575772958191        7.53483196193828
H            9.61917571416768        7.17614757606210        6.71050980369869
C            8.90988225238841        8.05792472142281        8.53594980132778
H            9.60215036688156        8.89054389980665        8.49695395843184
C            8.01176355325011        7.94736390679392        9.58774479551516
H            8.00266861996650        8.69046314940916       10.37669550225661
C            7.12813599565723        6.88022663126940        9.63498301702151
H            6.43238168621380        6.79612091897709       10.46336807249670
C            6.99439205516100        3.05937893789288        9.11162560102318
C            7.86883994991640        2.50924070990960        8.16996869378837
H            7.95967857086601        2.95215422325293        7.18503911049210
C            8.63244056473815        1.39609940482479        8.48445843543013
H            9.30968505039588        0.98383509576462        7.74560587409457
C            8.53990101965861        0.81838047527676        9.74368098550698
H            9.14329706643975       -0.04711525981264        9.99042364466695
C            7.67535717241210        1.35593398913606       10.68720975060408
H            7.59681061417943        0.90751418812532       11.67040063724713
C            6.90878346466383        2.46615670662878       10.37337878014934
H            6.23324947316399        2.88183825330440       11.11424605970449
C            2.49019711875869       10.15886190078104       11.16476593141258
C            2.04456386125763       11.19225509465802       10.33462023046222
H            2.63201224555879       11.49581544897285        9.47601360612523
C            0.84129288923568       11.83164635403059       10.59241133137032
H            0.50816247977982       12.62898740043181        9.93822228297940
C            0.06770809607095       11.45828378767003       11.68304659587854
H           -0.87000253040161       11.96305628794754       11.88332364248027
C            0.49680622735589       10.43183783945237       12.51315647356389
H           -0.10227947925646       10.13125125638446       13.36503089257434
C            1.69323645828267        9.78584348839292       12.25018030840092
H            2.02333646278869        8.97740318541721       12.89395959295364
C            5.32326706551850       10.41240119872284       11.58013782777719
C            6.44256535852786        9.87886999613419       12.22415819442878
H            6.52147278749769        8.80594687598986       12.35655588984922
C            7.44612059912660       10.70526952870103       12.70552330718830
H            8.30553708867200       10.27228879071464       13.20392980253507
C            7.34351916757774       12.08082057663205       12.55195782708159
H            8.12435204841325       12.72992161168965       12.93012103020182
C            6.23442985956702       12.62408582555488       11.91691626657165
H            6.14856362459846       13.69778348309273       11.79680052446845
C            5.23000499642269       11.79881368131612       11.43370777286835
H            4.36740148949845       12.23772722579786       10.94573092716542
C           -0.89202494582533        3.38813762945069        8.38767855737631
C           -1.70620768714671        3.96990560988393        9.08821343261006
C           -2.62715700385114        4.63304331767154        9.83538413017571
C           -3.42527848149444        5.27087708268728       10.49706887324812
C           -4.33846754393354        6.03926089864436       11.25453198538117
C           -4.69888954619707        5.65094013149101       12.55062750601941
H           -4.28522131825249        4.74100410909286       12.96958339923668
C           -5.57570956002121        6.42676085086435       13.28975578921868
H           -5.84947638638307        6.12048834186066       14.29310990637534
C           -6.10614578396482        7.59214705985058       12.75012254269171
H           -6.79366468958974        8.19514310345019       13.33139112201614
C           -5.75713633729661        7.98133742803958       11.46244629585456
H           -6.17311576210770        8.88844219050186       11.03889009680253
C           -4.87860724612066        7.21466542506998       10.71629145029151
H           -4.59907854746317        7.51769121865166        9.71345831838265
C            3.70575753361224        2.92213187125194        5.66563644852214
H            3.34553728944003        3.91546584444293        5.38169297917151
H            4.36559604758300        2.58256131053544        4.86370759483113
C            4.47347784133860        3.01721991969161        6.98506410391655
H            3.75676016112611        3.06277153009494        7.81207243232278
H            5.07730390514242        2.11782537794757        7.13230259390769
C            5.36936971411044        4.25493265784008        7.04300535518778
H            6.18590445719866        4.15490736156086        6.32493871065049
H            4.79056658999692        5.13806069735157        6.75611666021595
C            3.65922664462283        8.17422930485577        8.37093824898975
H            4.06932716598566        8.09829245590874        7.35891947637352
H            3.80960069134601        7.20368525021992        8.85644048534419
C            2.16276134400974        8.48275608403215        8.29992652692755
H            1.77907682936406        8.61711448207654        9.31529892297653
H            2.01335561543850        9.42700401177447        7.77096305188621
C            4.43320269210077        9.24727724605541        9.14140852483290
H            5.50194588323335        9.03285317099828        9.04525653087551
H            4.26313741370782       10.22802349159500        8.69000155702449
