1148
 energy: -1772.379846095494 gnorm: 0.000639041812 xtb: 6.5.1 (579679a)
Au          11.87827669520394       12.63106568327422       34.21265633472125
Au          11.68480360301391       10.82453091699932       31.82939218291860
Au           9.69719426004448       13.02771674421448       32.32120693003090
Au           9.58613603829185       10.55131929879682       34.06015893184428
Au          13.98325482294383       12.91237438986061       32.03256904301873
Au           9.84369680302930       12.25266227505643       36.43136617304292
Au          11.93905716133684       15.04827802277350       32.36825094646160
Au          11.62088485599081       10.05727453604774       36.09807179236604
Au           9.83009453954551       14.79231252860626       34.68130176485924
Au          11.70569572604671       13.18613063612800       29.96354722760054
Au           7.48182784721750       12.79074439728543       34.48972355140668
Au           9.65172415956081       11.19947803766225       29.74194325451125
Au          14.11545906053496       14.78300971141918       34.23933601460531
Au          13.92327320770586       10.97171188446000       29.76489674659252
Au           7.53098527776607       11.05238527629530       31.96050045016106
Au           7.52296883994520       15.21135095066334       32.94187672852194
Au           9.32735393086283        8.77217752659285       31.69061730690511
Au          12.16967771869175       14.37733612662397       36.58540299288703
Au          13.78277500466473       10.35892659010428       33.95458347943058
Au          13.87187438794937       12.11354809116851       36.32654579918820
Au          11.72635911043058        8.38021671874661       33.55042111748500
Au           7.28196281211120       10.33429944682324       36.17338296577732
Au          13.90626484468773       15.24694947649871       29.88323447376610
Au           9.62504090521636       15.43171159418703       30.56655027360958
Au           7.55112810102583       13.44452808267121       30.34289040662092
Au          13.86062302197309        8.63585369615379       31.80092477411732
Au           5.32828597016186       13.01411246840921       32.14542273913181
Au          16.06230579767369       10.73332123726065       31.59271962826524
Au           8.99941437593955        8.06166674302899       35.89031993109928
Au           9.25083409812655        9.77289565317775       38.14134169702890
Au          12.67623841177347       12.32923380115705       38.96583854558348
Au           9.95923351337249       17.19569568128881       32.76898794075726
Au           7.98261050839674       14.40995284095253       37.06455369555020
Au          11.95845715157775       16.93494548871799       34.92596042881890
Au          12.04063669673054       11.16637892623926       27.64757254167211
Au          15.91690477734611       12.20930424586768       34.28965218668991
Au           5.16511336681787       10.88765585600038       34.36778066175348
Au          16.17904477025000       15.19055314954278       31.61290939388086
Au          10.06207690175634       13.88231540265247       38.84483016703517
Au          11.75201838221502       15.51326699807139       28.14091348369880
Au           5.41578184964114       12.32632763772939       36.73330186798859
Au           9.09763018405447       14.09197414198661       28.00392477394769
Au          13.71804086214903       13.60467548295514       27.66536274549372
Au           7.79496789188706       12.28351083340745       38.81694270582023
Au          15.95818746172814       12.81925245483949       29.76595024608596
Au           7.20029469263520        8.80588469982536       33.47649087503035
Au          11.88376201856039        8.96636638171415       29.44524383801973
Au          14.14957036081571       17.12910218692190       31.92996316220595
Au          15.71891884064930        9.97445960906170       35.97958092571321
Au           5.65979991111167       15.04236485260046       35.63203906093933
Au          13.51559779336299        7.86323837259218       35.93607184632623
Au           7.34477205908855       16.02014877341128       29.07353713819994
Au           5.66514292249806       11.33091540866451       29.91349045840429
Au          16.49976369198513       14.74011014555561       35.94190285870040
Au           9.66612771382482        9.39570942312262       27.37209459314874
Au           7.69926432280591       16.99176100435956       35.67343356803244
Au           7.35571472844650       17.68971011648830       31.54897613789607
Au          13.59732641158348        9.47478551493231       38.21455944180988
Au           7.63034343286457        9.19651631615165       29.28892899984780
Au          11.42916175611919        7.72284288017947       37.75069692721585
Au          10.28631302108276       16.39981414800420       37.03154219801164
Au           7.02454111093095        7.99487361758042       37.91653100843629
Au          11.47356391547905       17.50104542525965       30.48375983287095
Au          14.04966480794742        9.14111511959459       27.60529499217906
Au           7.66211483338707       11.43049757516088       27.60259735265780
Au          14.47032510533798       16.66221728481152       36.39539716296554
Au          14.49425236603319       14.27819477397761       38.13545706243112
Au           5.21995239435680       15.87602238606281       31.20658651272342
Au          16.09662856132210       16.87415857945859       34.15532219994231
Au          15.94613697569613       17.32675819907868       29.74606524159994
Au           5.54165222597807       17.27103269119273       33.66015243880522
Au           4.73147258593026        9.11687449434134       31.67197524408477
Au          16.28429427297854        8.20302840383037       33.58031704693792
Au          16.21326785896500       11.15130138627927       27.24963782863059
Au          16.10980028750245       15.61652499182414       27.31620344755117
Au           6.36828754670197       16.42165118081445       38.07978125609954
Au           9.13797765526575       18.29056021809780       28.57932996141999
Au          16.35493751996599        8.38560180962347       29.26945696326502
Au          13.77609279048926       17.75264327364894       27.62647482565208
Au           5.55007952948937       14.14940688728351       39.73017324782072
Au           4.78903412165175        9.87192308467323       38.41910212140659
Au           4.62786082185058        8.14436644725051       35.83223177800031
Au          12.78110538828398       16.54170885137776       39.35020002960944
Au           8.44932844994707       16.27590757161965       40.18809403271351
Au          11.30999330164607        7.99271403432486       25.46616090306753
Au          17.72529125299456       11.49282739026182       37.58538607193601
Au           8.59888830164893        6.34340826705117       39.69124841844642
Au           6.21747104700827       13.95624927075949       26.73553980777843
Au          17.95179080621571       18.60041152704687       31.39694569844966
Au          15.51804249360597       11.98448602178179       40.06810497287987
Au           3.50096768651382       14.03486416460863       29.62352297136887
Au           4.42194462209893       18.66218665477053       36.00613010461417
S           17.41665182557812       13.97663778792086       33.38227810954665
S           11.23284475179575       10.32085009047041       39.54000555718109
S            3.85902685540559       13.62356434629851       38.18667438350480
S           10.01894543356054        6.68759059825806       34.12575515428229
S            3.20417183249478       10.46334703051627       32.87722010388696
S           10.16782379292530       12.34799868854747       26.53312260129274
S           10.75431337240141        7.09453794892770       30.56644539361518
S           17.44912487710905       14.65424231533552       29.01200129247325
S            8.33977562634521       19.60364195648159       30.35857497690646
S            4.16526001640521       14.63288043108819       33.68684563120781
S            9.39815695668516       18.52600511138469       34.82096824684307
S           17.91182131121015        9.88912850272458       28.32417231047257
S            9.90811213511411       16.74516535849712       26.96090474683037
S            8.97345449091535        7.82842006996318       25.48374201725985
S           12.95665556823992       19.11577995264392       29.38098726903946
S           17.96531105203392        9.67125458575625       32.79994763279466
S           17.80672072683244       18.58796538729488       33.74246014612434
S           14.70544946961048        6.57122662986459       34.22301467636507
S           14.67765946227844       12.25767472856881       25.82661543745084
S            6.23081962748532        6.26581388709907       39.57281444696100
S           10.86337930260481        5.87817489664529       39.25970567894958
S            6.68542554351907       10.30654651655381       39.80113919820928
S           17.44805528433322        9.15021460813573       37.53232860453082
S           14.84352204988398        9.74979082755206       40.33158127046352
S            3.72023077416511       11.95457513876002       28.51890420579410
S           14.91281829710670       16.87937957426596       25.71973293944811
S           11.92352201149802       14.56051205699132       40.37694899525724
S            5.44773477740726       16.07436144490644       27.47353221090223
S           17.76250045660352       18.93547535262879       29.06754798924274
S           13.65832010172979        7.77864576972058       25.56395991434239
S           13.54931315039381       18.31263500242851       37.98634334237173
S            6.40054288423225        6.92593667911656       34.85922326900469
S           16.17524281735643       14.23166649173736       39.98451874431970
S            2.87698550393189       16.15204342352573       30.45021218314014
S            7.11072565708182       14.76241020379711       41.38243845527242
S            6.11136471061630        7.64905318479813       30.46412342947410
S           12.68674424976130       18.60818648227334       33.20547985826564
S            4.13375277299252       19.35926350120459       33.77908452991632
S            6.54811392809460       11.99434765563956       25.46904882012678
S           18.38890598145716       13.69071349385497       37.08027768389719
S           14.45172240246579        7.16558202576823       29.88278022064687
S            2.91322090985080        9.01766503937923       37.23055184041012
S            4.83267285253372       18.36433967855617       38.32485699221329
S           10.09490078156432       17.61281639832749       39.21319547890418
C           18.98675187488453       13.41871996888613       32.87196304915499
C           19.63958538102410       14.05951796645500       31.82570242712183
H           19.13671868435213       14.85116062934199       31.28342322492956
C           20.93302072690869       13.70285681534518       31.47894787700144
H           21.40283871849785       14.24081773125665       30.66546524904642
C           21.60801933414902       12.68624047771361       32.15373266595432
C           20.91201989367438       12.00422112764310       33.15631820943269
H           21.37387908792552       11.17292799912763       33.67623135390214
C           19.62578643194448       12.36835475547666       33.52175260019351
H           19.11785603736419       11.83170878466702       34.31445144280199
C           23.04642781680878       12.30623824056955       31.82168308116270
C           23.73227472579919       13.35901810307922       30.93809718299016
H           23.69666919437110       14.34157990268786       31.40907101948167
H           23.25935171934512       13.41825517154574       29.95750963772717
H           24.77770778863420       13.08598563491915       30.79031082182282
C           23.86894377374362       12.16587443414061       33.11432827261002
H           23.83414673371350       13.09442796849629       33.68373897540646
H           24.90921768134402       11.94818685831974       32.87028309942420
H           23.49211033655242       11.35815694765391       33.74059430910800
C           23.04809886389240       10.96395642680342       31.07267407158125
H           22.55754432321821       10.19343224497925       31.66573692695793
H           24.06989331785855       10.64610407500599       30.86343600047043
H           22.51632214456438       11.06740539254370       30.12708801597172
C           10.88161379361791       10.16277606776655       41.23876089572657
C           11.81870013566457       10.52766800916049       42.19941114653541
H           12.79013412919732       10.89662462629527       41.89164179808630
C           11.51883861305494       10.41563546792704       43.55024438408948
H           12.27547645525737       10.72394053245194       44.26080280089734
C           10.28378713032939        9.93256522413375       43.98231873198730
C            9.36723107736881        9.53658005342052       43.00511932882643
H            8.40139824263835        9.13339436847624       43.28698409291457
C            9.65769258965712        9.65209411845442       41.65784861937141
H            8.92262927696240        9.34839396858445       40.92297778821985
C            9.90334462650944        9.81607204102638       45.45310665469233
C           10.92803973934936       10.48538086144929       46.37915445333941
H           11.04845897545628       11.53885029585235       46.12385264505350
H           11.89820651132738        9.99311603593764       46.31626527177439
H           10.58378957937506       10.42063439299820       47.41199764989160
C            8.54132192371993       10.49315879137453       45.68222026902997
H            8.57288244813973       11.52673410716713       45.33992293335729
H            8.29511747272155       10.48657705141634       46.74419329712048
H            7.74880116907877        9.97719513402260       45.14218572933998
C            9.78414062858400        8.32979855401449       45.83283010153922
H            9.07663017753843        7.82071825369692       45.17873725650959
H            9.43840930384674        8.23284401339706       46.86252026558424
H           10.75221198792760        7.83780542660473       45.74687229446250
C            2.83936254132263       12.45455340809730       38.99157728624161
C            1.75216926826188       11.92477821147694       38.30005819308077
H            1.60199037278040       12.18473166626520       37.25919719680917
C            0.86816036664676       11.06877924839401       38.93634290746196
H            0.03279049053122       10.68240131418621       38.36607017628618
C            1.03311682910386       10.70568654583906       40.27529989211540
C            2.14359543049433       11.21601578331868       40.94567167366829
H            2.33636202539660       10.96484776675437       41.98100912683328
C            3.03417439110026       12.07103220287475       40.31411436281331
H            3.87988260324889       12.46014600388529       40.86841344908152
C           -0.01870080542033        9.86030379708500       40.98221806511199
C           -0.51968642524132        8.72345253720503       40.07722619975983
H            0.31803089513838        8.12399606365120       39.72281998978957
H           -1.06131801690930        9.11355885645758       39.21655433796832
H           -1.19711318050822        8.07628444234098       40.63491156333885
C            0.51414361721363        9.23798226413131       42.28155341246117
H            1.41913976720602        8.66106296473618       42.09099237829956
H           -0.23689827248258        8.56884851721548       42.70246402504472
H            0.73346342914352       10.00400410922401       43.02528714229977
C           -1.20032548009546       10.78712254205067       41.32366912842073
H           -0.87028353445463       11.58917022108804       41.98419819141058
H           -1.98903252175538       10.22467429913299       41.82390772557009
H           -1.60871081899360       11.23092494388543       40.41562546491234
C           10.70582852814597        5.32381507810931       34.96567290030436
C           11.91778017883026        4.76710121815089       34.57816523513146
H           12.45814104072127        5.18278454653071       33.73666138653680
C           12.45896930792536        3.70422406627105       35.28551817763515
H           13.42124847713324        3.32391772252371       34.96620571767364
C           11.80226582710524        3.16102796949234       36.38756780959228
C           10.56118170007487        3.70042445431628       36.73703911621548
H           10.01161893341001        3.31442525691178       37.58730126523147
C           10.01711003102865        4.76062084091550       36.03679771996126
H            9.05881955303279        5.16954546471099       36.33518553422229
C           12.41420662813006        2.07436668739492       37.25938777974868
C           13.64485194004609        1.42521691463666       36.61136145826742
H           14.44257016491030        2.15319399752658       36.46562319690598
H           13.38754286671762        0.98521304321139       35.64761755549207
H           14.02461363197143        0.63400969784750       37.25888431605301
C           12.83871155238236        2.73249864677862       38.58533766776161
H           13.61173741435478        3.47864918654264       38.39748691436203
H           13.23408562269837        1.98495172002908       39.27342536474218
H           11.99016343119474        3.23139713174559       39.05499286762589
C           11.38184373889367        0.96739121168649       37.53555946828989
H           10.54974691927155        1.34060086155999       38.13143131071848
H           11.84976709243388        0.14966118293800       38.08449888896085
H           10.99108842699975        0.57725143952804       36.59530138482199
C            2.14576604721543        9.32235675510341       33.67433980101573
C            2.22591435848983        7.94994260231826       33.46850950143939
H            2.99360172947282        7.54829601325571       32.81821609125088
C            1.31421280480104        7.08400835168857       34.05613649004127
H            1.41814967686921        6.02614294821681       33.85077543617893
C            0.28872808811228        7.56107481445382       34.86996496084047
C            0.22630266358142        8.94144420414815       35.08018575941719
H           -0.55346610824381        9.35862098290385       35.70631616156959
C            1.13817954575992        9.80989703471226       34.50316370363146
H            1.06495089690897       10.87494257014931       34.68677724273697
C           -0.77086168953331        6.65060246023415       35.47822119518807
C           -0.43879246180887        5.16182727864084       35.30184773938826
H            0.52372242104096        4.92065955196988       35.75266784890894
H           -0.41523908889401        4.88601833047744       34.24749855521241
H           -1.20442333273538        4.55871577423555       35.79112373470655
C           -0.91647145704037        6.93695553334221       36.98209160523164
H            0.04202077739536        6.81119144604322       37.48406561037266
H           -1.63407625783510        6.24653251377201       37.42604702086921
H           -1.27026515459217        7.95249962330893       37.15490026809768
C           -2.11316526872143        6.93452152297027       34.78033347048441
H           -2.38479184471135        7.98520673390945       34.87970466842746
H           -2.90284868153805        6.32730769439821       35.22367623942795
H           -2.04207503117075        6.69092978983844       33.72029779995587
C           10.50338370062050       13.02925486630095       24.96563862088818
C            9.74449246567065       14.09732526761387       24.50303406486033
H            8.96923247344173       14.51901853489221       25.13195521460845
C            9.97301907966604       14.63379423068673       23.24649444207265
H            9.36421990276889       15.47459797502297       22.93929078777702
C           10.95660652365504       14.10986269789137       22.40868911471784
C           11.71902843946926       13.04231276349124       22.89081929887990
H           12.49508305285441       12.60252947544369       22.27473857303481
C           11.50690446947024       12.51110716036817       24.15286424727986
H           12.12726025230612       11.69521379161031       24.50695459882223
C           11.20450252025989       14.64037638744138       21.00265124071879
C           10.29910772519975       15.83147700524686       20.65884703919548
H           10.46566290723632       16.65613907014029       21.35261432354178
H            9.24711569700811       15.54743174245437       20.69073069656902
H           10.52525637302011       16.18294034654136       19.65150839793626
C           12.66660683626456       15.09789741096649       20.87166663088095
H           12.87808817970748       15.88016771061566       21.59995033300784
H           12.84983859835130       15.49458185649445       19.87272589459667
H           13.35256772272185       14.27031496835662       21.04349449614824
C           10.93179287783015       13.51088851213090       19.99395644632670
H           11.59521352015694       12.66427417722072       20.16880630862462
H           11.08807796562159       13.86895242095634       18.97603993538410
H            9.90134143462320       13.16828752342875       20.08864863164948
C           10.03514706432761        6.21119365176788       29.24522994568398
C           10.83429620902387        5.85233976325342       28.16269260846914
H           11.88437677067882        6.11927518529044       28.16029478100022
C           10.29862215344384        5.15367073392790       27.09350250717375
H           10.96123475233656        4.88629369910262       26.28031443698570
C            8.94611481726172        4.81223908549857       27.06069463309775
C            8.17038498471198        5.13588534159401       28.17470710709195
H            7.12043883176047        4.87171347465062       28.20460162765286
C            8.70491285587162        5.81064379316319       29.25988490440745
H            8.08135522254083        6.03736264331421       30.11538336351787
C            8.31108925783045        4.09502881420449       25.87726678742476
C            9.22346679152345        4.09076520270598       24.64245896322751
H           10.13588605749049        3.52302641756130       24.82442785882196
H            9.48773281563897        5.11076880547227       24.36148415864869
H            8.70082599759051        3.62831660577577       23.80440389534503
C            8.01777681383953        2.64132474769875       26.28778973833587
H            8.94350589055502        2.13367041531936       26.55973950124091
H            7.55148859036983        2.10325636196628       25.46198606166891
H            7.34416239959300        2.61483834137410       27.14415396728506
C            6.99807076460852        4.79893689978792       25.49295182074732
H            6.24290222126116        4.67588261787006       26.26830279381131
H            6.60352943128354        4.38162742225819       24.56612244403880
H            7.18167818187190        5.86491665345538       25.34803149837101
C           18.90401982539442       14.04099437462246       28.25866352898272
C           19.45651102487524       12.83377295902714       28.66220474592730
H           18.99130610684640       12.26459223096476       29.45768198439283
C           20.59031174893357       12.33898440085171       28.03492508480821
H           20.97454622022063       11.38454482357404       28.37008731677521
C           21.20776375788854       13.03725214814345       26.99927947551011
C           20.66678078017461       14.27423574185253       26.63864920473991
H           21.12917503043869       14.86862581441565       25.85895149535994
C           19.53134862701895       14.76994523522410       27.25426420095448
H           19.12456603846146       15.72660888963598       26.94925839005690
C           22.43619661653627       12.51544069749036       26.26615825548416
C           22.78462268213268       11.07240709808116       26.65741473293419
H           21.94655660590347       10.40421363162877       26.45789511658264
H           23.05002150210014       11.00397960043174       27.71237929281551
H           23.63946848480673       10.73155667795989       26.07229665841978
C           22.17921541238390       12.55085961228894       24.74837765990959
H           21.27474281866755       11.99177727007565       24.50763045854240
H           23.01826419058383       12.10144781304102       24.21667061078898
H           22.05751557296280       13.57274105254133       24.39081227209717
C           23.63255871238768       13.42087361209251       26.60763636907965
H           23.43553628287341       14.45023937645056       26.30910164984501
H           24.52753823584224       13.07346110962079       26.09095519143129
H           23.81970036072713       13.40203284528529       27.68163065545931
C            6.94659294361808       20.50788355800565       29.83124974170548
C            6.90330291660826       21.10649265070486       28.57741953929327
H            7.71255063471793       20.93795371531446       27.87667999653240
C            5.84934331207067       21.94079245820396       28.22924705756456
H            5.86358534282974       22.38805199065503       27.24316055372030
C            4.81373936479190       22.20832363977458       29.12363990842094
C            4.84986266837308       21.56539957672009       30.36417348919696
H            4.05691970472693       21.72526029525178       31.08520217567991
C            5.89365876529571       20.72879106225609       30.71588544604050
H            5.89943013357040       20.26168076395870       31.69364624660997
C            3.68153056603812       23.18220607451125       28.82370584022393
C            3.84973170821247       23.87952805343842       27.46681841918316
H            3.84342043505431       23.16033056197462       26.64868634812003
H            4.78280990679777       24.44283133990697       27.43435832292496
H            3.02476501063254       24.57541315068156       27.31050526338285
C            2.33961582336316       22.42961344511539       28.83686800145385
H            2.33308791084190       21.65258012266840       28.07289389701525
H            1.52019993450482       23.12039952220298       28.63656478919322
H            2.16700431908188       21.96022376980367       29.80498846515834
C            3.66277828076254       24.27224654353060       29.91183096537435
H            3.43776669350009       23.84745849354771       30.88916656436983
H            2.90160381416848       25.01782684156042       29.68033540212128
H            4.63257707829988       24.76807817007975       29.96190800523226
C            2.53672334355396       14.19892246656619       34.13509353595510
C            1.71608326209333       13.51419911632548       33.24708079053196
H            2.10078305175171       13.21120889170625       32.27983041242189
C            0.41021977758214       13.20020332857999       33.59430062289388
H           -0.18806183121226       12.66302356982397       32.86893845530859
C           -0.11452944580582       13.55853251687375       34.83667265325757
C            0.72804712081792       14.23555559891873       35.72222751615902
H            0.36929719576780       14.52736361234608       36.70213179319673
C            2.03174260659143       14.55289948285230       35.38251589212736
H            2.66392954398429       15.06688675180737       36.09776156148816
C           -1.54034994919493       13.22970262145988       35.26339973840306
C           -2.33800977009862       12.53392749024489       34.15168973826249
H           -1.88139109518875       11.58095519886200       33.88262564693428
H           -2.39892368343316       13.16202552301232       33.26290895008667
H           -3.35271719303331       12.33685271494638       34.49947529024791
C           -1.49903549906356       12.29608657920027       36.48535717042287
H           -0.94621586405039       11.38893113966256       36.24565874050085
H           -2.51064760516114       12.01856691819433       36.78272353810261
H           -1.01498056290879       12.78531285987165       37.32907817132012
C           -2.27416266051935       14.52302617120836       35.65842400189494
H           -1.77817265137601       15.01474580594615       36.49475396124377
H           -3.29887000152151       14.29500549110076       35.95318370745539
H           -2.30081094406891       15.21538537242569       34.81860018805904
C            8.78683730002600       20.07393415667705       34.28733599622064
C            7.46573039326992       20.44357144420308       34.48724909817682
H            6.79825720336951       19.77894039854718       35.02164068887209
C            6.98615529312351       21.65114351104370       34.00359090406126
H            5.93643744998772       21.87001896668743       34.15166068931887
C            7.82533263727417       22.54176854399948       33.33577614230043
C            9.16107872638289       22.16664263788138       33.16098839738384
H            9.85058219934312       22.82715354106624       32.64713473042968
C            9.63770330995164       20.94890934979899       33.61596954807975
H           10.67108568155658       20.66942824750631       33.44553858052786
C            7.33883828316433       23.88357818656366       32.80302714309521
C            5.83627057992286       24.09470124822108       33.03216591618470
H            5.59783506656965       24.09474619431738       34.09587302858231
H            5.25529244199438       23.31600881157545       32.53882051843206
H            5.53718241383017       25.05819775897033       32.61795292492034
C            8.09645317244434       25.02176703123024       33.50814290984354
H            7.85163650803099       25.03189612696108       34.56968230578912