281
 energy: -424.686575627842 gnorm: 0.000046868571 xtb: 6.5.1 (579679a)
Au          -0.02585844303524        0.01198416340592        2.61802407598204
Au           2.11066749596855        1.10264472033541        1.10410382306039
Au          -0.00006194659318       -0.00001163474046       -0.00004944477650
P           -0.25044024892922       -0.37956841611914        4.94844466733901
P            4.31683704233652        1.95474202202427        1.09221558117147
C            4.62709132533582        3.61810334680712        1.75764339048024
C            4.53549074352867        4.72501598141731        0.90731740774583
H            4.32224500916230        4.57962427260868       -0.14612036632887
C            4.72779043178153        6.00594087923132        1.39901053051175
H            4.66670606524495        6.85330573181704        0.72583802653532
C            4.99347153481750        6.20309714643281        2.74743469117291
H            5.14327363380503        7.20537643233021        3.13049664512255
C            5.06736235431870        5.11214942138993        3.60309223955643
H            5.27605206413727        5.25962646604502        4.65623526096255
C            4.88406052323221        3.82762276763529        3.11484852246335
H            4.95660090218067        2.98246476336850        3.78983558696096
C            6.94114507067187        2.58229282109395       -2.00082543106961
H            7.89883047703119        3.06759942602955       -2.14719439158576
C            6.31330087356569        1.94628498643377       -3.06360521497605
H            6.77982287963170        1.93064069951687       -4.04134896000902
C            5.08227527537771        1.33396841632082       -2.87182257301276
H            4.58487220004957        0.84018196945151       -3.69843920336584
C            4.48643789948288        1.35390294433760       -1.62108849842508
H            3.51891404159114        0.88194460247154       -1.47971381581643
C            5.11265754137631        1.97564467287210       -0.53985526670696
C            6.34815005320368        2.59997932001606       -0.74827710162597
H            6.84119934638681        3.10705462741940        0.07301942064780
C            5.30143918718077        0.84755455522709        2.14219857374628
C            4.72091714950835        0.43148965594658        3.34556228042555
H            3.71505522119987        0.75482172889271        3.59445426748154
C            5.41694115341329       -0.38652268981383        4.22005498879435
H            4.95835915142440       -0.68521229082240        5.15604344792761
C            6.69481776286329       -0.82158380085474        3.89269751188740
H            7.23978374347291       -1.46481154897659        4.57324847510781
C            7.26913055129517       -0.43718577328431        2.68905418337239
H            8.26242435912298       -0.78185899932737        2.42645533468575
C            6.58187156777387        0.39632832891338        1.81911485151472
H            7.04727495836213        0.70044265447618        0.88878391051446
C           -1.74548057985134        0.28548584547047        7.24133624838681
H           -0.89580606664261       -0.06085357111353        7.81909629389679
C           -1.69643602067863        0.25061288451547        5.84402223597157
C           -2.78770992898645        0.72470183016494        5.11296510685011
H           -2.74568967911726        0.72164417483272        4.02759614705554
C           -3.91359913093119        1.20408886417099        5.76393220275496
H           -4.75533347962931        1.56753072484316        5.18583722727781
C           -3.95854340576464        1.22337329764501        7.15122841660212
H           -4.83874773304127        1.59954664620236        7.65903599233507
C           -2.87230737973866        0.76835887867003        7.88739585961424
H           -2.90190154529096        0.79102972698682        8.97036541906792
C           -1.00193945917924       -2.82984415889878        6.17755292280240
H           -1.86185726369751       -2.31654404640362        6.59218200654008
C           -0.07868583064516       -2.12867820123630        5.40049973474870
C            1.01584796191576       -2.81752025910434        4.86385768148470
H            1.72853349182139       -2.28392119470393        4.24233350895695
C            1.19861626476593       -4.16410136529094        5.12594960823928
H            2.05857645171500       -4.68085846379169        4.71517363604237
C            0.27848419032132       -4.84996153148095        5.90936126593264
H            0.41986193867530       -5.90521513696371        6.11050219526038
C           -0.82145682641089       -4.18273871447405        6.42837497470356
H           -1.54377183096516       -4.71556542015547        7.03558727154144
C            1.97344547099510       -0.15885137334943        6.70795367193296
H            1.73645932927836       -1.15262341356817        7.06950987939491
C            1.17775829211227        0.43519161208320        5.72706369719581
C            1.50735667180645        1.71681408524962        5.27349399621853
H            0.89671363976473        2.18636196948220        4.50845479226031
C            2.60122149876101        2.39022545082317        5.79171279832820
H            2.83953453372748        3.38550547764952        5.43334163339531
C            3.38880427728053        1.78843142778045        6.76538869397616
H            4.24788013450653        2.31174260469224        7.16799485900666
C            3.07206278169150        0.51601296057358        7.22075538252569
H            3.68117163199169        0.04497179354163        7.98331068304145
Au          -2.09714219160462        1.39210951777585        0.76251301286986
P           -4.03132193414182        2.77855963491775        1.09039657689918
C           -5.48824782806199        2.44811168850347        2.12915520507930
C           -6.38847407769217        1.46554114337973        1.70356002668421
H           -6.20836329516317        0.94393607014657        0.76894846545181
C           -7.51004636886952        1.16588078171908        2.45880058698340
H           -8.20337723860117        0.40764241177066        2.11349016435110
C           -7.74377206970748        1.83584279768322        3.65296731326415
H           -8.62301090500206        1.60360257830536        4.24189297711439
C           -6.85212882638788        2.80691761705880        4.08754715495561
H           -7.03566483143372        3.33839486063826        5.01395882998228
C           -5.72677724596484        3.11157517106494        3.33432692964353
H           -5.04074115779544        3.87819422256052        3.67563158341552
C           -6.49149696359234        4.27441509072677       -1.84342690237128
H           -7.43657746880920        4.80138586053313       -1.90075135506344
C           -5.78868483788866        3.97760364644522       -3.00355336429591
H           -6.18170870593771        4.27325119469079       -3.96897053988062
C           -4.58433902088466        3.29147047287282       -2.92366277117553
H           -4.03803951497344        3.04264484351284       -3.82623519495273
C           -4.08044691740859        2.91553678094256       -1.68875232208676
H           -3.14305879816169        2.37160295149218       -1.63425420153845
C           -4.76668404895422        3.22520756761908       -0.51268701400968
C           -5.98754638858310        3.90167130516695       -0.60709411465492
H           -6.54607398759986        4.13338415201383        0.29242116484226
C           -3.33270713892174        4.33530249061017        1.72162755318903
C           -2.37250616232913        4.24126392496697        2.73455969552485
H           -2.10870001139106        3.26574353660479        3.13126283805633
C           -1.75611714188055        5.37703524586209        3.23241799733201
H           -1.01674724287254        5.28732074531016        4.01999036949547
C           -2.07735440529731        6.62445685541292        2.71342606100048
H           -1.58687329066537        7.51256211370896        3.09400770559801
C           -3.02348406350640        6.73004365099022        1.70384298466573
H           -3.27690956652196        7.70137506741100        1.29547502730920
C           -3.65110151384507        5.59524961927410        1.21180518873353
H           -4.39145553067166        5.69165610854132        0.42608955805498
Au          -0.05971244637464       -2.50274510738821        0.80876374021741
P           -0.73288671142267       -4.73051943013317        1.27156760859775
C            0.48511256585842       -5.77212895373722        2.12712536969525
C            1.83528553253805       -5.57210967365854        1.82663158087296
H            2.11676272931855       -4.80037148408520        1.11715146121638
C            2.81268218600641       -6.34937718071566        2.42648815160612
H            3.85640334980889       -6.18223958184142        2.18618692270962
C            2.45428004017745       -7.33614058466786        3.33616850014135
H            3.21839102313597       -7.94397737393985        3.80572372412600
C            1.11606088028270       -7.54012605018281        3.64425273090776
H            0.83238008398665       -8.30941830197376        4.35276582938630
C            0.13448448151679       -6.76251702608503        3.04773765978518
H           -0.90703702527631       -6.92330107228778        3.30090669065037
C           -1.19925803543301       -7.66999157643935       -1.56952804054235
H           -1.14021907425997       -8.75080627628425       -1.62016092893575
C           -1.51163688556248       -6.93654164379460       -2.70655975285643
H           -1.69854792020261       -7.44265813293649       -3.64609148626894
C           -1.57772947567721       -5.55125053378767       -2.63752791299297
H           -1.81855370275077       -4.96984348737545       -3.52046939222134
C           -1.34184364833414       -4.90804736876457       -1.43355527971441
H           -1.39349056162009       -3.82518076078648       -1.38527615256024
C           -1.03753629946158       -5.63295484497625       -0.27965227419843
C           -0.95855179974648       -7.02632230884657       -0.36531132420603
H           -0.70010573072505       -7.60805692319968        0.51208780706066
C           -2.25561654540526       -4.88479930791897        2.24965117379991
C           -2.50732112069562       -3.90200336884271        3.21005033908668
H           -1.81400174869570       -3.07408373422569        3.32196756964251
C           -3.62823505827183       -3.97837714304361        4.02029441807427
H           -3.80226955113676       -3.21545872830654        4.77038192990635
C           -4.52615570770471       -5.02617225685292        3.86683528603890
H           -5.40636556830494       -5.08255649438941        4.49612409450432
C           -4.29563331640110       -5.99922775835493        2.90396325304164
H           -4.99515444205041       -6.81739468599845        2.77934863178244
C           -3.16603854583058       -5.93477709139597        2.10173086855762
H           -2.98876127220557       -6.70409064107047        1.35895282903354
Au           0.02588624354638       -0.01201545405028       -2.61807503970500
Au          -2.11072996867151       -1.10271676903738       -1.10424519061516
P            0.25047244937929        0.37955427046796       -4.94843380430084
P           -4.31692834245807       -1.95472690491052       -1.09219573358993
C           -4.62719768607824       -3.61810829440255       -1.75755227048378
C           -4.53546888032283       -4.72497849807988       -0.90718406981529
H           -4.32208916717948       -4.57952955256795        0.14621853363490
C           -4.72781220401225       -6.00592913945862       -1.39879019620793
H           -4.66663020706668       -6.85326504725994       -0.72558938757859
C           -4.99367016720786       -6.20315346738114       -2.74716903929331
H           -5.14351929930909       -7.20545264501313       -3.13015896549000
C           -5.06768872241254       -5.11225004997498       -3.60287093440836
H           -5.27652006811071       -5.25978683635036       -4.65597861556194
C           -4.88434068019972       -3.82769700321437       -3.11471442459086
H           -4.95698134201661       -2.98257698583296       -3.78973790910042
C           -6.94125976938921       -2.58205256735407        2.00088697620204
H           -7.89895518099696       -3.06732716415760        2.14730144205545
C           -6.31339932392367       -1.94598424891949        3.06361985307957
H           -6.77991455360761       -1.93026115415005        4.04136467879295
C           -5.08236477320697       -1.33370350589123        2.87179085873270
H           -4.58494725701229       -0.83986616575766        3.69836790296897
C           -4.48653773933356       -1.35373757460234        1.62105588604605
H           -3.51900801976680       -0.88180688654379        1.47964570796215
C           -5.11276946281218       -1.97553967344141        0.53986690806980
C           -6.34827460382463       -2.59983828941783        0.74833451566728
H           -6.84134056729139       -3.10696331285795       -0.07291986775537
C           -5.30152819629795       -0.84759212196778       -2.14222971626688
C           -4.72102226424626       -0.43162842179832       -3.34563726607551
H           -3.71517331438384       -0.75500415655232       -3.59452572422015
C           -5.41704739403330        0.38633532020783       -4.22017357317938
H           -4.95848362307402        0.68494714751200       -5.15619709505045
C           -6.69490426818485        0.82145442577080       -3.89281896601606
H           -7.23986699728367        1.46465242495412       -4.57340090170280
C           -7.26920529855442        0.43715121107394       -2.68913982331709
H           -8.26248751619631        0.78187114290750       -2.42655334855393
C           -6.58194776052058       -0.39631922064077       -1.81915727485249
H           -7.04734439384332       -0.70036488122758       -0.88880056552820
C            1.74558969175590       -0.28559014690483       -7.24124664959023
H            0.89592381325041        0.06071344087744       -7.81904206971548
C            1.69649217127973       -0.25066683204068       -5.84393665031733
C            2.78774389447171       -0.72471433660261       -5.11281810336353
H            2.74568067984353       -0.72162308037671       -4.02744956813151
C            3.91366637770656       -1.20410405431557       -5.76372654044994
H            4.75538433451419       -1.56751876914851       -5.18559100408962
C            3.95866536879449       -1.22343178737571       -7.15102050985447
H            4.83890083398795       -1.59959963549115       -7.65877874159907
C            2.87245005674228       -0.76846638431971       -7.88724924718383
H            2.90208888911256       -0.79118109571571       -8.97021697946814
C            1.00199284055636        2.82980312637843       -6.17761380389103
H            1.86189726180674        2.31648643380240       -6.59225186075674
C            0.07876743242109        2.12866716528140       -5.40049929956569
C           -1.01574365614471        2.81753043417706       -4.86383829987503
H           -1.72839886931217        2.28395388807531       -4.24225915115374
C           -1.19852796799263        4.16410008026105       -5.12597852073143
H           -2.05846856637068        4.68087223249475       -4.71518064950764
C           -0.27843271187847        4.84992724331808       -5.90946184034167
H           -0.41982587263341        5.90516996312374       -6.11065199582176
C            0.82149362643876        4.18268800334435       -6.42848621370207
H            1.54378280483685        4.71549823861853       -7.03574417497219
C           -1.97344003540574        0.15893444565075       -6.70792281863122
H           -1.73641940846933        1.15269890966834       -7.06947853420558
C           -1.17774372283192       -0.43515672273184       -5.72706978059511
C           -1.50739085821979       -1.71676237137039       -5.27348812390311
H           -0.89674273354300       -2.18634154653315       -4.50847181055926
C           -2.60131970039764       -2.39010978243472       -5.79165424766813
H           -2.83968163540633       -3.38536930345185       -5.43325937778370
C           -3.38890731565649       -1.78827114119761       -6.76529957580830
H           -4.24802869771232       -2.31153406473740       -7.16787094132386
C           -3.07211549623926       -0.51586998618921       -7.22068069159894
H           -3.68123255682994       -0.04479282913474       -7.98320728630554
Au           2.09702403864410       -1.39220321212983       -0.76259418923816
P            4.03133281342951       -2.77861296139811       -1.09047518698488
C            5.48825979912458       -2.44807732879705       -2.12922307963452
C            6.38836836732021       -1.46536407705863       -1.70370994212411
H            6.20817893824053       -0.94367691728903       -0.76916079001294
C            7.50992695275115       -1.16565817056912       -2.45895601849985
H            8.20315392146656       -0.40729695051479       -2.11370822531914
C            7.74376606829719       -1.83571973611365       -3.65304506215301
H            8.62299553553477       -1.60344411997444       -4.24197418781743
C            6.85223845233495       -2.80693616558947       -4.08754398577169
H            7.03584820284906       -3.33848802033118       -5.01389762195635
C            5.72689768330812       -3.11163351229689       -3.33432105434915
H            5.04094346853875       -3.87835171595297       -3.67556293129338
C            6.49151632386870       -4.27451584425061        1.84334667518975
H            7.43660602206022       -4.80146933410084        1.90067364527833
C            5.78869987528333       -3.97771351071598        3.00347309742423
H            6.18173625388027       -4.27332722535046        3.96889699517444
C            4.58432826415927       -3.29162821092580        2.92357594608730
H            4.03800798219786       -3.04283184731169        3.82614381637999
C            4.08043455943842       -2.91570474480761        1.68866183874202
H            3.14302383580355       -2.37181291082692        1.63415223369734
C            4.76669365280522       -3.22533319956643        0.51259902315217
C            5.98756380245358       -3.90178198142578        0.60700950767772
H            6.54609936461971       -4.13349037947426       -0.29250155712631
C            3.33274982552455       -4.33535150164930       -1.72176920657878
C            2.37250234800444       -4.24130790203005       -2.73465769872306
H            2.10867903966669       -3.26578154760615       -3.13133594508581
C            1.75609491551553       -5.37707777480408       -3.23249977565195
H            1.01667673160278       -5.28735830637119       -4.02002646494598
C            2.07736484046658       -6.62450639773460       -2.71354279169523
H            1.58684367615963       -7.51260756452658       -3.09408614665340
C            3.02357584281181       -6.73010251025789       -1.70403689472707
H            3.27705098117986       -7.70143841951701       -1.29571052344464
C            3.65120356318514       -5.59530953103482       -1.21200985725780
H            4.39161749330790       -5.69173141009718       -0.42635235681010
Au           0.05972555275202        2.50272793792066       -0.80883297153862
P            0.73301040546736        4.73049181858138       -1.27155542278375
C           -0.48501110596595        5.77208220245021       -2.12710294806431
C           -1.83518389449275        5.57198283526018       -1.82666452873917
H           -2.11664575767111        4.80019247864883       -1.11723305662616
C           -2.81259608568954        6.34923398749030       -2.42651786066856
H           -3.85631937759291        6.18203671665074       -2.18626779245692
C           -2.45420658976480        7.33605487558162       -3.33614122552466
H           -3.21832995431039        7.94387844981865       -3.80569409574246
C           -1.11598801659477        7.54011012117840       -3.64418227260254
H           -0.83232645673647        8.30943886779087       -4.35266386667185
C           -0.13439579582545        6.76252131321779       -3.04766614666504
H            0.90712852462577        6.92336005222111       -3.30079391099232
C            1.19935802541670        7.66987352744606        1.56964821087307
H            1.14034855131872        8.75068761674263        1.62032212415037
C            1.51168293807320        6.93637781322279        2.70666521417399
H            1.69857924077294        7.44245873694189        3.64621905727207
C            1.57774012374853        5.55108785964776        2.63759286000787
H            1.81851679140338        4.96964617030287        3.52052427834550
C            1.34188416629477        4.90793093453295        1.43358916082236
H            1.39351732642657        3.82506542901336        1.38527502231491
C            1.03762592235387        5.63288236771126        0.27970103991648
C            0.95866654191888        7.02624915071536        0.36540274895365
H            0.70025394054098        7.60801624262924       -0.51198533129451
C            2.25572850647274        4.88488486650224       -2.24964991256919
C            2.50735246016802        3.90225239492408       -3.21023730169387
H            1.81398805033807        3.07438682816229       -3.32227998223526
C            3.62823950172697        3.97872570000081       -4.02051133438109
H            3.80221330801652        3.21594197165899       -4.77074999104551
C            4.52621086060459        5.02645423746121       -3.86689479186132
H            5.40639817904181        5.08291565790371       -4.49620874945671
C            4.29576544448915        5.99934942396129       -2.90384275373907
H            4.99532763604838        6.81746402776074       -2.77911500274850
C            3.16619546285166        5.93480290428433       -2.10157969788587
H            2.98897084659578        6.70399712970603       -1.35866483342110
