265
 energy: -378.483941413794 gnorm: 0.000492855731 xtb: 6.5.1 (579679a)
Au          10.79483490181561       21.56847035058625        4.84893173249825
Au           9.62979093154168       19.25145148994226        5.57776959055138
Au           8.49924906932935       21.99967211010641        6.24158173501333
Au           9.45389360247052       23.82327813572713        4.22616987780125
Au           8.40644751533719       21.03366803987805        3.67414946270460
P            8.72945294945125       17.53900462417196        6.96465010070610
P            7.01573651733156       22.60971776794892        7.97300308414392
P            8.49590713039320       25.51233102591968        2.84325948127138
P            6.68362817794509       20.47769528487013        2.15512660672927
C            6.93626024124110       17.67235946321888        7.20132676479807
C            6.41681583601609       18.41358311263700        8.26716903552253
H            7.08634225815150       18.81472443649554        9.02017718517045
C            5.05182996875908       18.63108104074973        8.37378289142603
H            4.66348210926873       19.19325323855840        9.21550732043828
C            4.18681163350717       18.12234697602073        7.41350505778346
H            3.11905398582403       18.28175049383760        7.50483886847326
C            4.69418573186539       17.40140701739193        6.33960960831561
H            4.02362648488294       17.00123014797339        5.58804871684359
C            6.05872280480856       17.18501687171635        6.22720196239604
H            6.44456076412128       16.62986267037038        5.37892371307252
C            9.46015124829210       17.58423905153607        8.62658843701304
C           10.57054075462255       18.40052549384977        8.85509780466009
H           10.95266222452950       19.02033301718204        8.04959538037696
C           11.18995012805267       18.42401742068629       10.09493392386673
H           12.05439771844857       19.05938640205066       10.25344922826637
C           10.70591198128182       17.63010870302499       11.12635292626687
H           11.19170033937861       17.64399092821871       12.09478688799821
C            9.59883991384709       16.81841594372099       10.91393756649667
H            9.21821453818948       16.19917705627443       11.71760175332094
C            8.97922366988050       16.79214926258282        9.67469759087565
H            8.11783454637794       16.15320917686169        9.51570662583014
C            7.11594017480732       24.38590239489465        8.34786371860329
C            7.47478596978208       25.26498770151823        7.32203851675154
H            7.68958212345595       24.87493743105821        6.33142605428781
C            7.56324846680420       26.62715289599346        7.55602236694704
H            7.83226779827002       27.29563930683123        6.74593644705803
C            7.30943371176365       27.13208636674076        8.82437458771043
H            7.38492401841319       28.19690597941072        9.00949167329523
C            6.96062123704822       26.26854892577805        9.85360004187716
H            6.76237203953095       26.65746918540642       10.84540387667196
C            6.86143522405040       24.90526650630526        9.62018306003795
H            6.58516788813254       24.24026097049910       10.43041489660704
C            7.18432086104950       21.76019072025656        9.56516745244671
C            8.45639255792276       21.29299944544412        9.91294363459718
H            9.28485785831745       21.43541841186709        9.22498445045616
C            8.66467351254776       20.64717226763823       11.12064309442332
H            9.65728262482724       20.29618880338798       11.37846790507053
C            7.60234399915205       20.44268973048649       11.99121680806280
H            7.76379662964555       19.93124032897970       12.93263961820629
C            6.33352211587869       20.89223005477316       11.65233974445183
H            5.50192584012855       20.73327193076802       12.32862029255591
C            6.12234442634196       21.55080822464957       10.45019381486976
H            5.12809271764763       21.90169273387019       10.20033804767140
C            6.69407692159246       25.42463725667327        2.65555382506210
C            5.84807277751079       26.01224767581757        3.60142575888512
H            6.26395054002819       26.61835763871153        4.39872035843378
C            4.47553599560573       25.83401116752917        3.52338771927461
H            3.83053755560414       26.30847423394377        4.25365101278660
C            3.92777887322871       25.05488403498606        2.51209216599975
H            2.85423136421253       24.92416155868622        2.44761043856999
C            4.76051125587990       24.45065890263640        1.57859968696150
H            4.34089109305945       23.84447050102061        0.78376226714776
C            6.13344897197874       24.62745369555552        1.65244029634723
H            6.77773276359320       24.15092484628384        0.92172458241217
C            9.17762492040696       25.39410091659088        1.16435138430732
C            8.64841022739367       26.11520669278283        0.08869857679338
H            7.77951633318056       26.74620812618249        0.23815537940677
C            9.22942381916792       26.02757691561516       -1.16635609737315
H            8.81041164533571       26.59066385818662       -1.99194097381265
C           10.34688413531342       25.22715993513201       -1.36730164457137
H           10.80163296246490       25.16621361978184       -2.34887655015047
C           10.88188572782426       24.50659087589665       -0.30744064904710
H           11.75538917890121       23.88109087042825       -0.45572462356347
C           10.29851963286971       24.58864262261017        0.94709938831098
H           10.71713118371586       24.02278530034493        1.77378507466276
C            6.79074179468549       21.23555108063791        0.50906056701503
C            8.05280511754260       21.65951351340365        0.07967952075748
H            8.90977641376019       21.53277755893619        0.73486952696880
C            8.21660742863176       22.24664958316045       -1.16447285563354
H            9.20193355121972       22.56872226898972       -1.48161786338035
C            7.11907231447821       22.42911784079789       -1.99501309384177
H            7.24488648539736       22.89238598078291       -2.96633042602064
C            5.85992021144788       22.02045702615509       -1.57680360683689
H            5.00044636302849       22.16391380315960       -2.22095454991867
C            5.69275692867852       21.42660046316038       -0.33492748192072
H            4.70318915279590       21.11509703981510       -0.02217690099920
C            6.50723887697543       18.68700208219399        1.89041180858206
C            7.36850690829419       17.81269973890447        2.55721146584152
H            8.14240968216621       18.21330910626081        3.20533287339086
C            7.24604098401043       16.44115242846383        2.40231957309790
H            7.92303589343218       15.77757899504098        2.92860605256052
C            6.26134255518681       15.92157202792898        1.57365725933061
H            6.16435504919550       14.84938312871765        1.45177592695750
C            5.40282198829151       16.77997406536377        0.89942003500875
H            4.63414652351737       16.37901303363376        0.24936668734672
C            5.52279723949055       18.15170191376757        1.05347370540993
H            4.84803918653222       18.81102951222397        0.51969672230958
C            9.07414187347732       15.81273536844650        6.39604815659771
H            8.59574830186554       15.07092092838303        7.04082982897265
H            8.65587154468094       15.69401795916533        5.39374329010469
C           10.59343964839160       15.59265870389405        6.36838217754756
H           11.08716152160910       16.48738565678170        5.97055978615532
H           10.94943717594381       15.46930291026139        7.39567806407245
C           11.02037649883801       14.36458030774687        5.55649903071765
H           10.52952190730069       13.47704934914350        5.96635089895524
H           12.09764162492127       14.23180449891014        5.69685690485798
C           10.70477331050682       14.43104669510487        4.05598143427860
H            9.62434107390532       14.34032363609134        3.90605191122667
H           11.17084262127285       13.56665255609918        3.57405032317133
C           11.16700709061528       15.70863298690471        3.34603709579100
H           10.69346833452704       16.58184694454853        3.81066927744719
H           10.81517251257044       15.67448320056521        2.31052518256181
C            8.89988360536136       27.24731139354042        3.34435193859135
H            8.43348387286807       27.97655322573836        2.67658788569055
H            8.49882307495390       27.41665688981510        4.34644832263048
C            5.27360517897510       22.35477472243386        7.41169983021154
H            5.09792300313093       21.27563245178756        7.38129947608158
H            4.55094992404462       22.78665779664309        8.10864027723193
C            5.07560482776472       22.96514407485500        6.01765427091599
H            5.93668803412575       22.72085833060409        5.38466735238142
H            5.05097380138618       24.05583095891977        6.10538296009566
C            3.78649092643990       22.50348917170272        5.32969636918744
H            2.93152762408109       22.77119684253367        5.95749730928764
H            3.69016186332827       23.06454306612874        4.39459246750878
C            3.70713531157881       20.99899918870535        5.03646669576388
H            3.61383385005480       20.44685418628672        5.97706762061533
H            2.79459808577301       20.81441103043781        4.46194746394589
C            4.90249549020963       20.41938657436660        4.27297627071527
H            4.78001952547468       19.33337434922561        4.21019553901160
H            5.82505611839307       20.59799967109477        4.83784163711407
C            5.05171081030290       20.98684177558970        2.85572283630818
H            5.02870732225055       22.07995475192157        2.87918612590265
H            4.21422325464825       20.65511702700490        2.23675252787887
Au          11.96076152671632       23.88737325510083        5.57682972916272
Au          13.09198106307219       21.13838942887125        6.24082247992697
Au          12.13701788034438       19.31461783755778        4.22452733619675
Au          13.18538220794713       22.10374278665218        3.67626315123756
P           12.86154444104523       25.59905641413692        6.96475302301737
P           14.57536239759226       20.52815322047404        7.97284492594550
P           13.09510255240423       17.62559324432489        2.84316031558290
P           14.90736329524861       22.66039478170996        2.15515662735080
C           14.65473630740731       25.46573545748680        7.20136708423318
C           15.17418176094071       24.72449671336649        8.26718759566201
H           14.50466038505400       24.32338740897352        9.02021781542856
C           16.53915828344861       24.50693627123147        8.37374152011300
H           16.92751519072717       23.94477655393182        9.21546855309390
C           17.40415513105977       25.01561285771292        7.41341362745337
H           18.47190990539495       24.85617751626253        7.50471247822408
C           16.89676603731188       25.73653312724354        6.33951145063833
H           17.56730778965710       26.13666615769949        5.58791192455476
C           15.53223521431279       25.95298265022972        6.22716414179042
H           15.14637427451105       26.50810374452820        5.37887306576020
C           12.13084061042824       25.55387525923879        8.62667282761578
C           11.02045202918883       24.73760044232154        8.85521643557041
H           10.63831118871106       24.11777559549295        8.04973324351115
C           10.40106891539284       24.71414602374293       10.09506167999878
H            9.53663379220128       24.07877060493106       10.25361422193605
C           10.88513317408278       25.50809225230007       11.12643994268837
H           10.39937782971521       25.49422894079555       12.09488830668300
C           11.99219272836222       26.31979040944996       10.91397198525638
H           12.37284487661850       26.93904960911996       11.71760519422129
C           12.61177849869823       26.34602219302509        9.67472166817068
H           13.47316362029641       26.98495551175776        9.51567756570737
C           14.47514079451826       18.75198062922244        8.34782797739336
C           14.11632477652774       17.87281926513128        7.32205946227451
H           13.90162268280583       18.26278822370794        6.33141171973759
C           14.02783826260027       16.51067281975641        7.55611257753162
H           13.75881774078784       15.84214629607022        6.74605935631921
C           14.28163245232682       16.00581051621925        8.82449239075424
H           14.20613017769242       14.94100155400808        9.00966585047241
C           14.63043161823915       16.86940844809477        9.85367189417855
H           14.82865054354376       16.48054122107798       10.84550264027549
C           14.72962262825859       18.23268154079155        9.62018149078947
H           15.00588652751464       18.89772716242256       10.43038071797055
C           14.40667117494057       21.37773669256367        9.56497906660299
C           13.13455444349247       21.84486464857559        9.91269328077913
H           12.30611692556051       21.70234189954736        9.22472596009257
C           12.92618256979370       22.49075455473777       11.12034427196237
H           11.93353971855881       22.84168737498854       11.37810961208839
C           13.98846543939172       22.69537063289589       11.99094192837039
H           13.82694349720564       23.20687661157697       12.93232322204391
C           15.25732776793715       22.24589090106757       11.65213882476182
H           16.08888821319000       22.40496085065447       12.32843825322254
C           15.46859502223704       21.58724231702647       10.45004354843205
H           16.46288110782114       21.23641016898798       10.20025314995934
C           14.89691076663129       17.71327719485372        2.65543807011001
C           15.74287545993804       17.12574713545563        3.60138419174852
H           15.32696995050257       16.51967086481751        4.39869143939326
C           17.11540337595602       17.30403388976664        3.52340491567802
H           17.76038163415510       16.82960024928975        4.25370344024783
C           17.66317469454930       18.08314690822719        2.51210362332358
H           18.73672024472589       18.21388364802564        2.44765068808424
C           16.83046545937844       18.68732315745872        1.57855764554411
H           17.25009516911931       19.29349584178559        0.78371410583460
C           15.45753558631807       18.51047114392489        1.65233600092128
H           14.81325622176845       18.98697110116724        0.92159460517872
C           12.41333927642347       17.74386447064429        1.16428658428508
C           12.94252867438453       17.02271947337981        0.08864281876289
H           13.81139998996696       16.39168849060069        0.23810819466903
C           12.36152384432845       17.11034538652929       -1.16641594034137
H           12.78053223500934       16.54724402764704       -1.99199592892288
C           11.24409151558258       17.91079451380566       -1.36737339612965
H           10.78937067486130       17.97176250517241       -2.34896255749761
C           10.70910437474464       18.63139113602427       -0.30751616893780
H            9.83562076211568       19.25691286721848       -0.45582718601317
C           11.29246684265176       18.54935779990840        0.94704153907116
H           10.87386954074951       19.11522757045838        1.77372252621211
C           14.80026390111682       21.90253252841214        0.50909194171878
C           13.53822035389294       21.47851343108753        0.07970732210799
H           12.68122375863580       21.60522464886843        0.73485625150778
C           13.37443278225178       20.89134040088471       -1.16441563360697
H           12.38911619441494       20.56921179701679       -1.48153047818969
C           14.47196868182296       20.70890560164771       -1.99495250836287
H           14.34616111979421       20.24561879976966       -2.96625886776163
C           15.73110753856472       21.11762026508881       -1.57675190613572
H           16.59058262683539       20.97418482963643       -2.22090280132593
C           15.89825693686230       21.71149412368625       -0.33488394578211
H           16.88781435798600       22.02303894115154       -0.02213923180257
C           15.08383512173974       24.45108927432393        1.89046313663038
C           14.22248158846289       25.32542000800627        2.55712050672820
H           13.44849522297163       24.92484720702275        3.20516015073952
C           14.34495095516808       26.69695365647664        2.40220829779192
H           13.66786898652050       27.36053169498430        2.92837710274351
C           15.32975711902110       27.21650988402320        1.57367021799747
H           15.42675215288239       28.28869412216662        1.45177568544907
C           16.18838602247794       26.35809057006126        0.89959024415046
H           16.95715143507568       26.75903597372649        0.24963734354749
C           16.06840380553410       24.98636823407138        1.05367068113522
H           16.74324541084890       24.32702854517368        0.52001498073750
C           12.51681259728901       27.32526018352153        6.39599903774795
H           12.99522639909882       28.06706850534849        7.04077025971386
H           12.93508372467150       27.44395808379965        5.39369150743442
C           10.99751493367409       27.54535352814024        6.36835692824514
H           10.50381506036659       26.65061742284314        5.97052539859872
H           10.64152172851639       27.66869621230873        7.39565778128224
C           10.57056173508011       28.77344666172433        5.55649770511918
H           11.06142051680382       29.66097928519032        5.96634222413171
H            9.49330017992045       28.90622273478257        5.69688421572125
C           10.88612376172568       28.70699897518774        4.05597073776848
H           11.96654781325527       28.79776795507516        3.90601046378853
H           10.41999870067857       29.57137501977311        3.57406142076565
C           10.42391077439245       27.42939764078555        3.34603612954244
H           10.89747037347771       26.55619057756849        3.81065506288441
H           10.77572157722409       27.46355028261151        2.31051746579746
C           12.69104395658377       15.89066804204099        3.34431773461974
H           13.15742280780211       15.16141223973870        2.67655585687964
H           13.09213855861732       15.72137776804283        4.34640791648808
C           16.31752824983426       20.78307473790303        7.41164498204327
H           16.49322692943583       21.86221483992856        7.38127705715583
H           17.04014328928127       20.35115467191917        8.10860539028253
C           16.51551036418353       20.17272989915612        6.01758453423652
H           15.65441965252621       20.41701334282839        5.38460414728206
H           16.54016729905928       19.08204150675726        6.10528848068235
C           17.80461406800914       20.63443542879757        5.32964160159502
H           18.65959171109004       20.36671154149753        5.95741742738713
H           17.90093901423387       20.07342247129094        4.39451308830431
C           17.88393091104718       22.13893958947388        5.03647262164420
H           17.97726623170590       22.69103915244452        5.97709681502883
H           18.79645709095264       22.32355719253976        4.46193996501472
C           16.68850268652925       22.71855741670483        4.27306481535736
H           16.81100296857761       23.80457054795308        4.21030076799828
H           15.76593029396724       22.53992706258803        4.83791679358621
C           16.53923872931517       22.15114720996520        2.85580048185177
H           16.56228131794569       21.05803215869132        2.87923121912560
H           17.37672408831243       22.48288591026367        2.23683326394201
