377
 energy: -614.532034592791 gnorm: 0.000041007029 xtb: 6.5.1 (579679a)
Au          -0.00004955168114        9.78301457858554       16.05906137230595
Au          -0.91616912062116       10.77705848592662       18.45146154112874
Au           1.73450265042766       11.39285494499595       17.46188168313017
P           -2.30043284539105       12.44255238292485       19.39716613271581
P            3.22567974388781       12.75885087530947       18.75158731587394
C           -3.86470129117195       11.84319345013600       20.08534293435337
C           -4.42970763873201       12.31511938964175       21.27179616374649
C           -5.62942665252540       11.80811660523165       21.74326593611666
C           -6.29571673351731       10.81018170737532       21.02630217098029
C           -5.73958037997285       10.33598906674162       19.82867756520033
C           -4.53754348174905       10.83747775579888       19.37909162096529
O           -7.44719200451043       10.23850732945995       21.40737218029960
C           -8.04556368516864       10.56044401905761       22.65735271755280
C           -1.46330879396383       13.38618086232883       20.69735625881118
C           -1.77581202255112       14.71954290407836       20.99523965362889
C           -1.03588256844230       15.42561750126384       21.91882024024071
C            0.05214904990851       14.82551426395685       22.56550881264014
C            0.36132318943339       13.49027355397585       22.29518763045962
C           -0.39409091523284       12.79096196961016       21.36967041858696
O            0.75372123204652       15.61319795018255       23.40255008157309
C            1.83261164145588       15.09130777743936       24.16319693050552
C           -2.79153594982233       13.70643834714607       18.19333370475971
C           -3.96687993288065       14.45839963660434       18.32758586454458
C           -4.27160281261548       15.45599234536777       17.42699674346071
C           -3.40339626614946       15.74097194825453       16.36480391399339
C           -2.23440599814870       14.99085780804887       16.21294454795095
C           -1.94792350365988       13.98106991607823       17.11549947690774
O           -3.78408643322687       16.72795647013698       15.53655712264025
C           -2.94065017803443       17.17562380736063       14.48850856484842
C            4.75059915885619       13.15447592904819       17.85608597264324
C            5.37846275844163       14.40549242406271       17.88306802344864
C            6.52196115484626       14.63389482063966       17.14663729580134
C            7.07076109926409       13.61874098738262       16.35243188634936
C            6.45561953991860       12.36396146722769       16.31991503852269
C            5.30745899367156       12.14830605536453       17.06073848195145
O            8.16687864060177       13.94338085791614       15.64734766952809
C            8.84009446597516       12.98262405087320       14.85004792667618
C            2.49830094728466       14.34302004526809       19.24924848609763
C            2.99940355297125       15.12110085136979       20.29713629120735
C            2.38268773562119       16.30199476477320       20.67073342170923
C            1.22795114768290       16.72695443150520       20.00653252985611
C            0.71975927445202       15.95759518348775       18.95064007124274
C            1.34912132798700       14.78609836381865       18.58591633100920
O            0.53727805647965       17.83439549548235       20.32239611237113
C            0.91897965077700       18.63833624905046       21.43249154732253
C            3.78802357382343       12.03796268259310       20.32362193735260
C            5.04192109178875       12.31288067373502       20.88413949187528
C            5.41893734215081       11.73947303195162       22.08053268206364
C            4.55328466715177       10.86846189923359       22.75325601817661
C            3.29834635196795       10.58804657396008       22.20814786623517
C            2.93510697287325       11.16773785777863       21.00380218320210
O            5.02002664568179       10.33192791170596       23.89853250964051
C            4.20542419575662        9.48321840608930       24.69109244075621
Au           0.91624289104279        8.78893964819401       18.45135252797068
Au           0.99400729521806        8.86682158095454       13.66661579677662
Au          -0.99407257743212       10.69918542439568       13.66655165859448
Au          -1.73443525601130        8.17324986887407       17.46173103430636
Au           1.60986035093057       11.51746142429739       14.65623512737410
Au          -1.60990180256081        8.04864311203290       14.65610198436341
P           -2.97591715196771        6.55744095101302       13.36645600785037
C           -3.37147999707642        5.03251755454646       14.26197313361837
C           -4.62250292035726        4.40466605325141       14.23509506259395
C           -4.85084638926444        3.26115521716268       14.97152218130530
C           -3.83562713181978        2.71233695963014       15.76562886888677
C           -2.58084576401290        3.32747999043521       15.79806416129989
C           -2.36524792517814        4.47564945068036       15.05723766096381
O           -4.16021707378836        1.61619862635366       16.47070192280059
C           -3.19939755567699        0.94295434601448       17.26789918275303
C           -4.56010655365934        7.28469839094182       12.86869215486646
C           -5.33828426315262        6.78319079562022       11.82106972173818
C           -6.51922291129099        7.39974651621640       11.44735596247016
C           -6.94412689305203        8.55473243511198       12.11116220466285
C           -6.17466693425858        9.06333354047728       13.16678519912952
C           -5.00312361794797        8.43412753110416       13.53163184139919
O           -8.05160890916648        9.24527094887433       11.79515328907417
C           -8.85555909790787        8.86324627354445       10.68517564266038
C           -2.25496021897248        5.99510487741910       11.79445247535521
C           -2.52987910061165        4.74121617734396       11.23392215946138
C           -1.95648557982879        4.36422264465434       10.03751665969404
C           -1.08548547617572        5.22989139754673        9.36479870291148
C           -0.80505082069047        6.48481350836885        9.90993345140765
C           -1.38473300598979        6.84803037169490       11.11429015352413
O           -0.54897806352250        4.76317501233258        8.21949943278946
C            0.29967523563524        5.57781442111096        7.42691750387521
P           -3.22563054820100        6.80721324135543       18.75144599640247
C           -4.75053216928054        6.41159530591091       17.85589642540330
C           -5.37847970917910        5.16061764464547       17.88293626988170
C           -6.52197193805612        4.93224131195897       17.14648314243635
C           -7.07069326615707        5.94738114761098       16.35220262639945
C           -6.45544386040786        7.20210515500767       16.31959112610931
C           -5.30729112949806        7.41773424532857       17.06043752843660
O           -8.16683549902976        5.62277084014856       15.64714160449148
C           -8.84006916317844        6.58354128288479       14.84986946851686
C           -2.49827457866865        5.22303134964720       19.24911839045979
C           -2.99940339660717        4.44492170831924       20.29697769733660
C           -2.38266128892072        3.26404733201195       20.67060255093128
C           -1.22787374131847        2.83913324179196       20.00646207498110
C           -0.71965778104527        3.60851648397343       18.95059820040850
C           -1.34904680429413        4.77999052525628       18.58584400954614
O           -0.53717284447079        1.73172109263195       20.32236783783660
C           -0.91889185294510        0.92778913229809       21.43246459486947
C           -3.78799690993829        7.52804840765413       20.32350072155639
C           -5.04188310016021        7.25311860991144       20.88404265878546
C           -5.41886619125100        7.82649561968288       22.08046456057680
C           -4.55319261890183        8.69748186788166       22.75319609330679
C           -3.29827668323828        8.97792457357317       22.20805343021955
C           -2.93507214213270        8.39826509267840       21.00368203338359
O           -5.01989977875464        9.23397036436181       23.89850840044789
C           -4.20527066694381       10.08262743124899       24.69110106062288
P            2.30057004636985        7.12350126305835       19.39711232283964
C            3.86484957163845        7.72282298110398       20.08529445131740
C            4.42986203154430        7.25086023495396       21.27172855563868
C            5.62957510095976        7.75785977304544       21.74321465133715
C            6.29584991049975        8.75583274818795       21.02628792094055
C            5.73970841200838        9.23005897274486       19.82867946534892
C            4.53767939671078        8.72857058435699       19.37907626139802
O            7.44731665796158        9.32751180208149       21.40737292880236
C            8.04569443556825        9.00556134404169       22.65734609496855
C            1.46337399123680        6.17994127447509       20.69730600270918
C            1.77587917981513        4.84660197410132       20.99528826089865
C            1.03589009855541        4.14056480007990       21.91884796084495
C           -0.05221022396718        4.74068018058843       22.56540970429846
C           -0.36138593253736        6.07590085185349       22.29499437825470
C            0.39409270008703        6.77517677889554       21.36950351112151
O           -0.75383839877837        3.95302356903966       23.40242829721416
C           -1.83283442445206        4.47491328173633       24.16292289211910
C            2.79160997331395        5.85955162452886       18.19331850316543
C            3.96688442398977        5.10748848652721       18.32761118350615
C            4.27152217389111        4.10982948194094       17.42706584193678
C            3.40330140541260        3.82488813441412       16.36487456942281
C            2.23438140558025        4.57510444232706       16.21297386927792
C            1.94798187216810        5.58495401379718       17.11548681439471
O            3.78390488779077        2.83783681325296       15.53666770538565
C            2.94043886367237        2.39022274323323       14.48862087834909
P            2.97590210788920       13.00867717863907       13.36651527810202
C            3.37153833497083       14.53358792075200       14.26202800025458
C            4.62257883890792       15.16141043370354       14.23510640589098
C            4.85097753959262       16.30491150964324       14.97153544700133
C            3.83579878129442       16.85375493473375       15.76567853547248
C            2.58100366316907       16.23864210764940       15.79815479334223
C            2.36534986109450       15.09048045505379       15.05733146057602
O            4.16044124343591       17.94987778696904       16.47075146957309
C            3.19967344587114       18.62314904424204       17.26799130020098
C            4.56005778492524       12.28127073288550       12.86885893906019
C            5.33815230183664       12.78238246419638       11.82098401344678
C            6.51901985983156       12.16563450837144       11.44735410814022
C            6.94394087849711       11.01085947595940       12.11151274109914
C            6.17456981371630       10.50265866519154       13.16739324571307
C            5.00309868821745       11.13205136741284       13.53215004501325
O            8.05135033354318       10.32015263410197       11.79561483374244
C            8.85526284987377       10.70181727098054       10.68548606916029
C            2.25503340927616       13.57102517199893       11.79447875730209
C            2.52998086491072       14.82490915643184       11.23394557465082
C            1.95657458617834       15.20192288345620       10.03755093907434
C            1.08554175540825       14.33627993144238        9.36484178828364
C            0.80508256195788       13.08136283711369        9.90997478239427
C            1.38477174662496       12.71812763919275       11.11432187644403
O            0.54902673817151       14.80301872610857        8.21955674358612
C           -0.29966510604021       13.98841855789269        7.42697463964890
P           -2.65953560751256       12.08353975511804       12.72084423850256
C           -2.06018719755463       13.64781242083573       12.03267487060242
C           -2.53212040378866       14.21283579262910       10.84623606056975
C           -2.02510876387355       15.41255454016928       10.37477829283643
C           -1.02715407171726       16.07882204353078       11.09173637244266
C           -0.55295475957642       15.52266587615162       12.28935000539097
C           -1.05445535150031       14.32063154767771       12.73892538791443
O           -0.45546547487084       17.23029214656228       10.71067432726933
C           -0.77740217160766       17.82868798096615        9.46070537903648
C           -3.60316577574036       11.24635969283167       11.42068997825101
C           -4.93653724129223       11.55882585967982       11.12281243086156
C           -5.64263006669142       10.81881324906629       10.19931326215425
C           -5.04253083346646        9.73073634538090        9.55269284220678
C           -3.70727959680867        9.42160144925780        9.82300382119375
C           -3.00795408172766       10.17709415717450       10.74844583753375
O           -5.83022272736953        9.02909038315389        8.71572155117845
C           -5.30835192426668        7.95010592345356        7.95519598096087
C           -3.92342503440675       12.57461267268943       13.92468352448723
C           -4.67550477563084       13.74986986788449       13.79034722351037
C           -5.67314793450819       14.05454008426947       14.69089737930718
C           -5.95805286823660       13.18636860824776       15.75314183935380
C           -5.20781120220211       12.01747273854320       15.90508838815173
C           -4.19798035939547       11.73103902139444       15.00256669307484
O           -6.94509577454653       13.56699423387331       16.58135039410191
C           -7.39267460954298       12.72357733196860       17.62945387761778
P            2.65948609935114        7.48246065264982       12.72093148537168
C            2.06014753506483        5.91820140680550       12.03271591194539
C            2.53207637472046        5.35322369953887       10.84625038350217
C            2.02506241210475        4.15352478499522       10.37474341613386
C            1.02711356416142        3.48722468542161       11.09167875239779
C            0.55291822288040        4.04333347190596       12.28931597964601
C            1.05441773726528        5.24535092174201       12.73893983490518
O            0.45542583598470        2.33577046985916       10.71056769006852
C            0.77735281741559        1.73743601254704        9.46056585388606
C            3.60306890450405        8.31964973656504       11.42075126368835
C            4.93640424609912        8.00713034490484       11.12276537238083
C            5.64243723022447        8.74710134505763       10.19918714018422
C            5.04232200187855        9.83519270383865        9.55260625663577
C            3.70711103887585       10.14439112945876        9.82304100829328
C            3.00784001379664        9.38893305643204       10.74855168284042
O            5.82996847899705       10.53678950789330        8.71555217635638
C            5.30807585130193       11.61575697246563        7.95501551678623
C            3.92340942915049        6.99135692956961       13.92472753311284
C            4.67538394867224        5.81602295015397       13.79045592200855
C            5.67300967175041        5.51131813658795       14.69101619668837
C            5.95800760948551        6.37952888655807       15.75320352300469
C            5.20787734492641        7.54850601550482       15.90508200730085
C            4.19806062524394        7.83497405395084       15.00255477849105
O            6.94501717568213        5.99885923960792       16.58143030574637
C            7.39270453167534        6.84230615039198       17.62946458110249
H           -5.42496489443588        4.82315071467630       13.63851638912082
H           -7.09634543678553        6.98967442269976       10.62934982503548
H           -4.40618766114764        8.83952889229268       14.34183081465103
H            3.93966428933520        8.56901005991119       24.14761169810498
H            4.80105917977778        9.22395029046752       25.56713938822914
H            3.29176552285496        9.99693765318293       25.00965420067268
H           -2.15483476451514        3.38931876658486        9.61002874725104
H           -4.82434836563133        8.38989053758103       17.01780215803691
H           -1.14367685061439        7.81550939255196       11.54422818528599
H            2.61308076558046        9.91009682065294       22.70069743155110
H            0.18042190169088        3.27834238417932       18.44624067358092
H            1.21391468826801        5.84356114635829        7.97035222678959
H            0.55889325991377        4.98221284426575        6.55083330265699
H           -0.21407096177870        6.49148099987942        7.10842153160897
H           -4.96008504055809        4.35822027253069       18.47966665503221
H           -0.94394198773599        5.37686646127233       17.77545368068470
H            1.96761652041474       10.92669098225095       20.57388442660960
H           -1.77939519918259        2.92498849027815       16.40376505937030
H           -2.84235839666850        1.58270310677959       18.08332879286319
H           -3.70995510827056        0.07463353837867       17.68607603697273
H           -2.34719763032256        0.61054403660828       16.66536289414234
H           -7.00945621835059        3.96540137554809       17.16437552346968
H           -2.79242075041424        2.68698588828333       21.48880891251729
H           -5.81772042413191        2.77373627729293       14.95374584475246
H           -5.73032481792503        6.59425598715803       20.36741039809828
H           -2.61300249337405        9.65587134936891       22.70059551655706
H           -5.00982849704915        5.90308437937894       11.27931749669089
H           -6.50484292905382        9.96355968387576       13.67087892128722
H           -3.93953777653109       10.99688042999335       24.14768256172207
H           -4.80087202749793       10.34182679828557       25.56719124515208
H           -3.29159364573001        9.56889658041024       25.00959230579740
H           -8.20034230014075        6.94047969446576       14.03437927953094
H           -9.70842500331537        6.07298087422874       14.43176765036592
H           -9.17243102325970        7.43581467121302       15.45232906863612
H           -3.18874059303217        4.05277762808602       11.75055993036782
H           -0.12709908513280        7.17008523304388        9.41739476280921
H           -6.85784107241246        8.00348518067849       15.71373350396614
H           -1.90771384212001        0.48431546558109       21.27553190034545
H           -0.17171098952691        0.13663011047256       21.50094397817793
H           -0.91965458859711        1.51395040835098       22.35731565963947
H           -9.29897486961684        7.87443651971746       10.84235047327683
H           -9.64676231963272        9.61036726436810       10.61655633134659
H           -8.26942689438031        8.86230810537383        9.76030623624042
H           -3.87935531296367        4.77337581598789       20.83898234516003
H           -6.39376761808202        7.62814346239478       22.50795828598188
H           -1.39305072143462        4.95852327341170       15.09974082489937
H           -1.96759707612747        8.63933225237284       20.57374406656509
H           -1.21390640719696       13.72269490022202        7.97041712424435
H           -0.55887645891780       14.58404197083855        6.55090305267039
H            0.21404150403708       13.07473767892811        7.10845590942082
H            1.55286282686348        4.38244592889571       15.39484662511883
H            0.12710333807731       12.39611184764735        9.41744485707125
H           -0.65645349651091       13.87965070472941       13.64781366267949
H           -6.67689383461170       11.05141593869127        9.97863067630776
H            1.04823339683690        6.17700903632571       16.97854417123558
H            9.29876780131043       11.69063264241920       10.84237195911899
H            9.64639935116734        9.95461158668662       10.61701370737868
H            8.26907765189029       10.70256241505144        9.76065028269826
H            3.92172756836929        6.47909423157840       21.83924211002114
H            2.15494084051200       16.17682383747591        9.61006442125663
H            4.64853662593048        5.31585104198760       19.14450991799471
H            5.18373974343257        3.53419279646047       17.52288914357824
H            1.77958563709793       16.64115340185189       16.40388576038180
H            2.84262831682166       17.98339994188860       18.08341756186011
H            3.71028144207506       19.49143680202978       17.68617580791365
H            2.34746978707328       18.95561461149558       16.66549055782013
H            1.39313713207001       14.60764056893343       15.09985762452949
H            7.09606958201666       12.57538421964951       10.62913529623471
H           -3.21589217415551        8.58831143838543        9.33696924352242
H           -1.97508752773151        9.92392028350024       10.96737541183226
H            4.09671150907635        9.12659491074720       18.47019212788204
H            2.59651111090333        4.35634700944276       20.48443575774531
H            6.25705506932181       10.01191478170431       19.28603208547963
H            8.33837641636773        7.95127119115860       22.69474891424900
H            8.93392133672823        9.63317473164274       22.73477993803285
H            7.36349342603382        9.23053675556650       23.48358862572774
H            2.78014083660993        3.17700577715530       13.74253491172850
H            3.45685494556630        1.54996360372189       14.02300721723874
H            1.97162555548928        2.05556123761650       14.87560941540522
H            5.42500120554238       14.74291284337231       13.63848240100162
H            5.81786495174997       16.79230338935548       14.95373373846412
H            5.00968877717812       13.66233036099207       11.27897892342241
H            4.40623306376077       10.72696152406284       14.34255695253531
H            6.50475177052430        9.60258690910161       13.67175948123999
H            6.04070571106343        7.37463189932045       22.66778324638499
H           -1.19469359552963        6.56729993648094       22.78098886947375
H            0.14089261756848        7.80802015270515       21.15049622700977
H           -2.64096007247170        4.82886950681844       23.51242189336130
H           -2.19630170723522        3.65049317333582       24.77732514830026
H           -1.49947361064016        5.29350521063293       24.80958533936350
H            3.18888082564874       15.51332194532604       11.75056816632156
H            1.14369884307431       11.75065189321816       11.54425627775872
H           -3.30387229491989       13.70470731679627       10.27869749048135
H           -2.40830699481791       15.82369070284882        9.45020043073164
H            0.22889162652948       16.04000141768387       12.83202115570088
H           -1.83170376869637       18.12132516099609        9.42327563705358
H           -0.14982612525356       18.71694514005251        9.38331286399276
H           -0.55237107401254       17.14651830910370        8.63445182737362
H           -5.42677842478499       12.37944134122363       11.63370532816714
H            1.26853948862339        3.10633336467520       22.13963155581602
H            4.46697746714687        5.13437862708588       12.97356152450001
H            3.30381951017932        5.86137765929974       10.27872353346478
H            6.60594185748470        7.00269271557763       18.37555285074474
H            8.23291900873380        6.32582568700404       18.09508838582472
H            7.72745470462157        7.81108215612104       17.24245924932721
H           -0.22892972514946        3.52597876104722       12.83196673337283
H           -3.60591038783103       10.83130532897145       15.13954554552953
H            1.97500342918277        9.64214905467326       10.96757243459000
H            3.21571575261279       10.97770043515576        9.33704671394263
H            5.42665744422629        7.18650305619226       11.63362761912651
H           -5.40043576166826       11.33599772242021       16.72325873765014
H            2.40825159940578        3.74243148475992        9.45014264276906
H            6.24857408689469        4.59905360681901       14.59520773087596
H           -4.46716535895380       14.43148239599596       12.97340879195960
H           -4.95438211984656        7.14196938283584        8.60567664801854
H           -6.13278680016402        7.58664800888456        7.34080755707895
H           -4.48977609071322        8.28347280505917        7.30851631783060
H            6.67666596451647        8.51444375208862        9.97840077229475
H           -6.60587484468131       12.56331946756344       18.37553089843565
H           -8.23292486493411       13.24001170181320       18.09506415685313
H           -7.72734297423665       11.75474190417390       17.24252574515779
H            4.95416225852225       12.42392999620466        8.60548072878007
H            6.13248183645795       11.97917116567421        7.34056244847808
H            4.48945298488397       11.28238296563653        7.30839886237840
H           -6.24879821134933       14.96674434243936       14.59503605593053
H            1.83164977548810        1.44478415414237        9.42312136138833
H            0.14976290593172        0.84919298762249        9.38312334858943
H            0.55233440379494        2.41965373925330        8.63434879501918
H            5.40057256724120        8.23001347722665       16.72320914057262
H            0.65641245746725        5.68629641315096       13.64784294014805
H            3.60607263697763        8.73476836569604       15.13948521828496
H            5.73035068959289       12.97175195962441       20.36750200073672
H           -4.09658153416238       10.43947924070581       18.47019377016662
H           -4.64851920040062       14.25000715738097       19.14448760190413
H           -8.33818539088611       11.61474965225877       22.69479320824804
H           -8.93382769752808        9.93287991233865       22.73475849438192
H           -7.36338198885750       10.33540053938560       23.48359276549000
H           -3.92156766020160       13.08686439188428       21.83933299604623
H           -6.25693455675109        9.55415703632432       19.28600310227298
H           -0.14089436490776       11.75810076782805       21.15074330689899
H            2.64080497067503       14.73729790305286       23.51280970952158
H            2.19603230836432       15.91574153436948       24.77760778835666
H            1.49914763465630       14.27275465476565       24.80985536205074
H           -1.55289571496638       15.18354799118494       15.39481774848380
H           -1.04811851682729       13.38909409437928       16.97858806753428
H            4.82458553811885       11.17611198857047       17.01816495396780
H            8.20030875115968       12.62562431055224       14.03462944956420
H            9.70838251110942       13.49322247292164       14.43185250332302
H            9.17255742006104       12.13039021919716       15.45250728865686
H            3.87931487624869       14.79260808529281       20.83918432357783
H           -6.04054781411647       12.19131186608855       22.66785231898175
H           -1.26852610845439       16.45986755733971       22.13952274572461
H           -2.78026225677139       16.38883766911796       13.74244575057501
H           -3.45714353342272       18.01581838671169       14.02286456738920
H           -1.97187596227171       17.51039406134685       14.87550088963193
H            7.00938239854359       15.60076647871381       17.16448832900375
H            1.19458094151023       12.99888537680904       22.78127757504262
H            6.85810809180413       11.56255663223420       15.71415199044728
H           -0.18028001758354       16.28780801143570       18.44623639952852
H            0.94403483172142       14.18923409232491       17.77550717687291
H           -2.59639355204597       15.20978653683236       20.48429533017356
H            4.95998848651988       15.20789977878879       18.47972911061078
H            1.90784318244886       19.08173559757380       21.27561146934223
H            0.17184864823027       19.42954954905342       21.50088927785458
H            0.91963655325335       18.05220784566761       22.35736386814524
H            6.39385063739554       11.93781620038817       22.50800334585151
H           -5.18387555231496       16.03154647696594       17.52278585084248
H            2.79242968370699       16.87903954268321       21.48895987163166
