137
 energy: -198.398731528764 gnorm: 0.000036300802 xtb: 6.5.1 (579679a)
Au           2.32320782278075       10.58193545766534       16.15305252502173
Sb           1.67163245755122       10.27849746851126       13.11213186129753
Sb           4.66533428254323       10.86145159105821       14.49403800862677
Sb           3.15434896980576        7.91337655528867       15.13852029549136
C            1.32799787371137       10.37014341979791       10.97063896802136
C            1.86124032018411        9.36107037179795       10.17249390378112
H            2.36961242833030        8.51901739640478       10.63125088132483
C            1.75942935419904        9.41067421106548        8.79037664397650
H            2.17721504600496        8.61064690084108        8.18874827684711
C            1.13087271451291       10.48715134410319        8.18135335899654
H            1.05352435323497       10.53298101984665        7.10060556589924
C            0.60926334922481       11.50810590077375        8.96226943629056
H            0.12278145878559       12.35716903195876        8.49425483187503
C            0.71098261259110       11.44912566540594       10.34466405160848
H            0.30186892606712       12.25936965783703       10.93729863400639
C            0.22459967652910        8.73465891225367       13.51914329499526
C            0.29070465647915        7.51002719805728       12.86114012925493
H            0.99179213200546        7.36967083194012       12.04616520875546
C           -0.54098602293765        6.45827881825803       13.21989605227149
H           -0.47189989270196        5.51337939210977       12.69219605951815
C           -1.45585054533968        6.61634130814641       14.25072292907446
H           -2.10128100396708        5.79403185302967       14.53861478540931
C           -1.53156643716465        7.83027307154480       14.91747177827045
H           -2.23712034294171        7.96602536542206       15.73021124784985
C           -0.69225557882596        8.87390677855171       14.55645640772640
H           -0.75846578931402        9.81005771167399       15.09910831958926
C            0.31100666125143       11.88599021714879       13.58670170812766
C           -1.04466858135591       11.82925782724173       13.27266185332768
H           -1.43382039378432       10.99159370465161       12.70460956182395
C           -1.91581012333507       12.82612607128709       13.68724679269732
H           -2.96934470797441       12.75784629894834       13.43880982390657
C           -1.44215538880027       13.90526619947770       14.42057596278483
H           -2.12366240526176       14.68070211651265       14.75236586595920
C           -0.09135821985270       13.98630300574308       14.72563465038057
H            0.29249660882037       14.82796778754899       15.29195720458099
C            0.77148401532228       12.98232084966860       14.31069715845776
H            1.82348109169272       13.05966123404067       14.56242596010623
C            5.97602088758618        9.76226899687371       13.17227226047297
C            5.43158898397826        9.13000685339424       12.05999949676680
H            4.38084687687757        9.26140706417482       11.82395314451162
C            6.21024681099868        8.32220558271404       11.24527730458742
H            5.76690053034632        7.84148747761599       10.38033503878842
C            7.54902172300435        8.12237812671897       11.54831749508545
H            8.15962372364814        7.48304399008044       10.92055290659741
C            8.10087375783287        8.73812599499279       12.66234327217718
H            9.14572309843959        8.58337882608141       12.90842243728646
C            7.31798589520748        9.55028764596185       13.46988699521476
H            7.76494769532880       10.02208442417639       14.33698599278383
C            4.34669703470804       12.58143495251301       13.24821494050670
C            4.11550181442944       12.46742473859713       11.88099586907907
H            4.24256920592675       11.51118939207286       11.38661197123531
C            3.74005000738846       13.56909496533261       11.12583596136487
H            3.56562153085576       13.45722440143495       10.06144679997703
C            3.58654836652420       14.80660921143642       11.73355587427209
H            3.28379536559946       15.66735047310378       11.14776545361674
C            3.82469560306723       14.93801670469456       13.09409721894008
H            3.71278311079176       15.90253606900953       13.57722547348548
C            4.19888365999937       13.83205470872502       13.84280522147484
H            4.38373372908439       13.94905080550519       14.90494318302071
C            6.17079333873584       11.81847355703545       15.70550431040344
C            7.23114883162313       12.55801607307647       15.18783971887460
H            7.35384132455048       12.64719604491525       14.11372460758690
C            8.13306717432370       13.19232847892776       16.02914477770934
H            8.95327449635218       13.76360690492821       15.60813872126271
C            7.98538498240838       13.09971394715937       17.40606955004896
H            8.69002447253516       13.59667820919362       18.06370465338997
C            6.93065643928160       12.37211799917225       17.93744368296691
H            6.80479229183329       12.29495971254845       19.01195271826724
C            6.03431266502989       11.74058000650563       17.08846913624259
H            5.21471450314343       11.16956695503304       17.51607852055483
C            4.23510615479772        6.32822598330180       14.13333031374405
C            5.13954768066055        5.48642107110549       14.77236857684428
H            5.31498365973129        5.58532315021045       15.83752677805029
C            5.82817197377596        4.51585006526489       14.05969677782167
H            6.53279608995043        3.87015145403511       14.57253009672084
C            5.61745189831641        4.37187248268795       12.69587409180104
H            6.15907701073596        3.61589157934013       12.13804769820467
C            4.71090651626884        5.19878294048230       12.04875955048245
H            4.53755537213053        5.09206636842559       10.98347857983731
C            4.02900546730210        6.16956259896045       12.76697544694852
H            3.32943441508047        6.81780612657430       12.24905531910168
C            1.75170738236716        6.62263896260882       16.14837840447639
C            1.67413972637295        5.24857572614519       15.94060909407011
H            2.36613690256624        4.76180801689023       15.26311854265394
C            0.71446795917359        4.48511137841584       16.58960742437938
H            0.66784412540053        3.41611997745481       16.41207795658613
C           -0.18388940167714        5.08491225685738       17.46035380976293
H           -0.93472014681421        4.48802235392451       17.96618291657987
C           -0.12099300589679        6.45398662096863       17.67510998228577
H           -0.82277899902334        6.93732088381658       18.34604387516345
C            0.83574473974759        7.20986165586025       17.01624143736072
H            0.85330091342448        8.28547858208901       17.17026076713109
C            4.50173619850697        8.04394916824538       16.81268497933825
C            5.86608206884951        8.21143371871629       16.58913601228699
H            6.26250215187972        8.11680021153130       15.58443693096284
C            6.73786883132413        8.47726820929835       17.63559829993125
H            7.79647081164292        8.60158227899808       17.43635316424709
C            6.25338534095511        8.59019750374724       18.93070784389814
H            6.92959357976664        8.80895104141352       19.74952616871131
C            4.89774296967363        8.41602163341724       19.17186375919929
H            4.50957940405780        8.48529530051704       20.18260502203525
C            4.03510773525857        8.14508116680785       18.12009129987439
H            2.98088168158914        8.00178910749176       18.33132317834702
Sb           1.85610909717397       11.23681956111253       18.85574249953536
C            1.71400812350444       13.31859596477143       18.36743288698745
C            0.58948721074726       14.09458261942506       18.63583752528688
C            2.77462201928631       13.90398425322252       17.67993767122521
C            0.52061099542817       15.41514816557640       18.21659313938028
H           -0.25131267896980       13.66350497759186       19.16777644659614
C            2.71346824741784       15.22386358808638       17.25882293169261
H            3.66413081998947       13.32044198180209       17.46472861217938
C            1.58070955020785       15.98131062537508       17.52183210864959
H           -0.36609521590145       16.00262510204784       18.42839121565602
H            3.54876286441755       15.66006270964623       16.72203408431399
H            1.52517916147747       17.01164518860069       17.18849002947119
C            1.72665480863469       11.38783799298855       21.03309408538764
C            1.62452006980313       12.60079791919946       21.70031922410691
C            1.78813476541573       10.20933494698987       21.76820196197598
C            1.55879494458196       12.63424992193247       23.08643002726222
H            1.59012932699348       13.53040251723939       21.14410517261463
C            1.71981779790223       10.23929641809218       23.15346115070187
H            1.89062987091341        9.25640484274802       21.25949124715090
C            1.60336569492052       11.45396055958721       23.81403958675543
H            1.47338346972454       13.58694838350113       23.59771124711335
H            1.76141425333989        9.31331210241059       23.71647264705168
H            1.55251812476317       11.48090286723144       24.89694411710109
C           -0.21629394235561       10.79064584959286       18.52737185402514
C           -0.87171226234398        9.80756947173631       19.26305785405554
C           -0.88646115920095       11.37066475791387       17.45172159640111
C           -2.16204531541980        9.41418692642447       18.93480445855263
H           -0.37380711032312        9.33823210554280       20.10447115859446
C           -2.17602543136728       10.98351924731144       17.11944694985866
H           -0.39966045216681       12.13880897013013       16.86105996572147
C           -2.81519299631543        9.99739187408417       17.85822223660557
H           -2.65730644990050        8.64784261857516       19.52113249346261
H           -2.67859735199601       11.45201903003706       16.28005143026561
H           -3.82078414348399        9.68656101715234       17.59755025823619
